phonopy:
  version: 2.17.1
  frequency_unit_conversion_factor: 15.633302
  symmetry_tolerance: 1.00000e-05
  configuration:
    create_displacements: ".true."
    mass: "208.942"
    dim: "3 3 3"

physical_unit:
  atomic_mass: "AMU"
  length: "angstrom"
  force_constants: "eV/angstrom^2"

space_group:
  type: "Pm-3m"
  number: 221
  Hall_symbol: "-P 4 2 3"

supercell_matrix:
- [   3,   0,   0 ]
- [   0,   3,   0 ]
- [   0,   0,   3 ]

primitive_cell:
  lattice:
  - [     3.345000000000000,     0.000000000000000,     0.000000000000000 ] # a
  - [     0.000000000000000,     3.345000000000000,     0.000000000000000 ] # b
  - [     0.000000000000000,     0.000000000000000,     3.345000000000000 ] # c
  points:
  - symbol: Po # 1
    coordinates: [  0.000000000000000,  0.000000000000000,  0.000000000000000 ]
    mass: 208.942000
  reciprocal_lattice: # without 2pi
  - [     0.298953662182362,     0.000000000000000,     0.000000000000000 ] # a*
  - [     0.000000000000000,     0.298953662182362,     0.000000000000000 ] # b*
  - [     0.000000000000000,     0.000000000000000,     0.298953662182362 ] # c*

unit_cell:
  lattice:
  - [     3.345000000000000,     0.000000000000000,     0.000000000000000 ] # a
  - [     0.000000000000000,     3.345000000000000,     0.000000000000000 ] # b
  - [     0.000000000000000,     0.000000000000000,     3.345000000000000 ] # c
  points:
  - symbol: Po # 1
    coordinates: [  0.000000000000000,  0.000000000000000,  0.000000000000000 ]
    mass: 208.942000
    reduced_to: 1

supercell:
  lattice:
  - [    10.035000000000000,     0.000000000000000,     0.000000000000000 ] # a
  - [     0.000000000000000,    10.035000000000000,     0.000000000000000 ] # b
  - [     0.000000000000000,     0.000000000000000,    10.035000000000000 ] # c
  points:
  - symbol: Po # 1
    coordinates: [  0.000000000000000,  0.000000000000000,  0.000000000000000 ]
    mass: 208.942000
    reduced_to: 1
  - symbol: Po # 2
    coordinates: [  0.333333333333333,  0.000000000000000,  0.000000000000000 ]
    mass: 208.942000
    reduced_to: 1
  - symbol: Po # 3
    coordinates: [  0.666666666666667,  0.000000000000000,  0.000000000000000 ]
    mass: 208.942000
    reduced_to: 1
  - symbol: Po # 4
    coordinates: [  0.000000000000000,  0.333333333333333,  0.000000000000000 ]
    mass: 208.942000
    reduced_to: 1
  - symbol: Po # 5
    coordinates: [  0.333333333333333,  0.333333333333333,  0.000000000000000 ]
    mass: 208.942000
    reduced_to: 1
  - symbol: Po # 6
    coordinates: [  0.666666666666667,  0.333333333333333,  0.000000000000000 ]
    mass: 208.942000
    reduced_to: 1
  - symbol: Po # 7
    coordinates: [  0.000000000000000,  0.666666666666667,  0.000000000000000 ]
    mass: 208.942000
    reduced_to: 1
  - symbol: Po # 8
    coordinates: [  0.333333333333333,  0.666666666666667,  0.000000000000000 ]
    mass: 208.942000
    reduced_to: 1
  - symbol: Po # 9
    coordinates: [  0.666666666666667,  0.666666666666667,  0.000000000000000 ]
    mass: 208.942000
    reduced_to: 1
  - symbol: Po # 10
    coordinates: [  0.000000000000000,  0.000000000000000,  0.333333333333333 ]
    mass: 208.942000
    reduced_to: 1
  - symbol: Po # 11
    coordinates: [  0.333333333333333,  0.000000000000000,  0.333333333333333 ]
    mass: 208.942000
    reduced_to: 1
  - symbol: Po # 12
    coordinates: [  0.666666666666667,  0.000000000000000,  0.333333333333333 ]
    mass: 208.942000
    reduced_to: 1
  - symbol: Po # 13
    coordinates: [  0.000000000000000,  0.333333333333333,  0.333333333333333 ]
    mass: 208.942000
    reduced_to: 1
  - symbol: Po # 14
    coordinates: [  0.333333333333333,  0.333333333333333,  0.333333333333333 ]
    mass: 208.942000
    reduced_to: 1
  - symbol: Po # 15
    coordinates: [  0.666666666666667,  0.333333333333333,  0.333333333333333 ]
    mass: 208.942000
    reduced_to: 1
  - symbol: Po # 16
    coordinates: [  0.000000000000000,  0.666666666666667,  0.333333333333333 ]
    mass: 208.942000
    reduced_to: 1
  - symbol: Po # 17
    coordinates: [  0.333333333333333,  0.666666666666667,  0.333333333333333 ]
    mass: 208.942000
    reduced_to: 1
  - symbol: Po # 18
    coordinates: [  0.666666666666667,  0.666666666666667,  0.333333333333333 ]
    mass: 208.942000
    reduced_to: 1
  - symbol: Po # 19
    coordinates: [  0.000000000000000,  0.000000000000000,  0.666666666666667 ]
    mass: 208.942000
    reduced_to: 1
  - symbol: Po # 20
    coordinates: [  0.333333333333333,  0.000000000000000,  0.666666666666667 ]
    mass: 208.942000
    reduced_to: 1
  - symbol: Po # 21
    coordinates: [  0.666666666666667,  0.000000000000000,  0.666666666666667 ]
    mass: 208.942000
    reduced_to: 1
  - symbol: Po # 22
    coordinates: [  0.000000000000000,  0.333333333333333,  0.666666666666667 ]
    mass: 208.942000
    reduced_to: 1
  - symbol: Po # 23
    coordinates: [  0.333333333333333,  0.333333333333333,  0.666666666666667 ]
    mass: 208.942000
    reduced_to: 1
  - symbol: Po # 24
    coordinates: [  0.666666666666667,  0.333333333333333,  0.666666666666667 ]
    mass: 208.942000
    reduced_to: 1
  - symbol: Po # 25
    coordinates: [  0.000000000000000,  0.666666666666667,  0.666666666666667 ]
    mass: 208.942000
    reduced_to: 1
  - symbol: Po # 26
    coordinates: [  0.333333333333333,  0.666666666666667,  0.666666666666667 ]
    mass: 208.942000
    reduced_to: 1
  - symbol: Po # 27
    coordinates: [  0.666666666666667,  0.666666666666667,  0.666666666666667 ]
    mass: 208.942000
    reduced_to: 1

displacements:
- atom:    1
  displacement:
    [   0.0100000000000000,  0.0000000000000000,  0.0000000000000000 ]
