nqpoint: 204    
npath: 4      
segment_nqpoint:
- 51
- 51
- 51
- 51
labels:
- [ 'G', 'X' ]
- [ 'X', 'U' ]
- [ 'U', 'K' ]
- [ 'K', 'G' ]
reciprocal_lattice:
- [  -0.28034763,   0.28034763,   0.28034763 ] # a*
- [   0.28034763,  -0.28034763,   0.28034763 ] # b*
- [   0.28034763,   0.28034763,  -0.28034763 ] # c*
natom: 2      
lattice:
- [     0.000000000000000,     1.783500000000000,     1.783500000000000 ] # a
- [     1.783500000000000,     0.000000000000000,     1.783500000000000 ] # b
- [     1.783500000000000,     1.783500000000000,     0.000000000000000 ] # c
points:
- symbol: C  # 1
  coordinates: [  0.000000000000000,  0.000000000000000,  0.000000000000000 ]
  mass: 12.010700
- symbol: C  # 2
  coordinates: [  0.250000000000000,  0.250000000000000,  0.250000000000000 ]
  mass: 12.010700

phonon:
- q-position: [    0.0000000,    0.0000000,    0.0000000 ]
  distance:    0.0000000
  band:
  - # 1
    frequency:   -0.0053644359
  - # 2
    frequency:   -0.0053644359
  - # 3
    frequency:   -0.0053644359
  - # 4
    frequency:   38.9574236949
  - # 5
    frequency:   38.9574236949
  - # 6
    frequency:   38.9574236949

- q-position: [    0.0100000,    0.0000000,    0.0100000 ]
  distance:    0.0056070
  band:
  - # 1
    frequency:    0.6841112840
  - # 2
    frequency:    0.6841112840
  - # 3
    frequency:    0.9829109489
  - # 4
    frequency:   38.9531242469
  - # 5
    frequency:   38.9531242469
  - # 6
    frequency:   38.9599364556

- q-position: [    0.0200000,    0.0000000,    0.0200000 ]
  distance:    0.0112139
  band:
  - # 1
    frequency:    1.3676723479
  - # 2
    frequency:    1.3676723479
  - # 3
    frequency:    1.9650119300
  - # 4
    frequency:   38.9402223661
  - # 5
    frequency:   38.9402223661
  - # 6
    frequency:   38.9674377532

- q-position: [    0.0300000,    0.0000000,    0.0300000 ]
  distance:    0.0168209
  band:
  - # 1
    frequency:    2.0500641914
  - # 2
    frequency:    2.0500641914
  - # 3
    frequency:    2.9454458406
  - # 4
    frequency:   38.9187076288
  - # 5
    frequency:   38.9187076288
  - # 6
    frequency:   38.9798171004

- q-position: [    0.0400000,    0.0000000,    0.0400000 ]
  distance:    0.0224278
  band:
  - # 1
    frequency:    2.7307142644
  - # 2
    frequency:    2.7307142644
  - # 3
    frequency:    3.9233893805
  - # 4
    frequency:   38.8885632775
  - # 5
    frequency:   38.8885632775
  - # 6
    frequency:   38.9968918969

- q-position: [    0.0500000,    0.0000000,    0.0500000 ]
  distance:    0.0280348
  band:
  - # 1
    frequency:    3.4090497764
  - # 2
    frequency:    3.4090497764
  - # 3
    frequency:    4.8980212920
  - # 4
    frequency:   38.8497671335
  - # 5
    frequency:   38.8497671335
  - # 6
    frequency:   39.0184097094

- q-position: [    0.0600000,    0.0000000,    0.0600000 ]
  distance:    0.0336417
  band:
  - # 1
    frequency:    4.0845025361
  - # 2
    frequency:    4.0845025361
  - # 3
    frequency:    5.8685264651
  - # 4
    frequency:   38.8022928505
  - # 5
    frequency:   38.8022928505
  - # 6
    frequency:   39.0440513934

- q-position: [    0.0700000,    0.0000000,    0.0700000 ]
  distance:    0.0392487
  band:
  - # 1
    frequency:    4.7565107957
  - # 2
    frequency:    4.7565107957
  - # 3
    frequency:    6.8340979596
  - # 4
    frequency:   38.7461114883
  - # 5
    frequency:   38.7461114883
  - # 6
    frequency:   39.0734349875

- q-position: [    0.0800000,    0.0000000,    0.0800000 ]
  distance:    0.0448556
  band:
  - # 1
    frequency:    5.4245207275
  - # 2
    frequency:    5.4245207275
  - # 3
    frequency:    7.7939387726
  - # 4
    frequency:   38.6811933782
  - # 5
    frequency:   38.6811933782
  - # 6
    frequency:   39.1061202957

- q-position: [    0.0900000,    0.0000000,    0.0900000 ]
  distance:    0.0504626
  band:
  - # 1
    frequency:    6.0879878210
  - # 2
    frequency:    6.0879878210
  - # 3
    frequency:    8.7472635549
  - # 4
    frequency:   38.6075102480
  - # 5
    frequency:   38.6075102480
  - # 6
    frequency:   39.1416140625

- q-position: [    0.1000000,    0.0000000,    0.1000000 ]
  distance:    0.0560695
  band:
  - # 1
    frequency:    6.7463782558
  - # 2
    frequency:    6.7463782558
  - # 3
    frequency:    9.6933003158
  - # 4
    frequency:   38.5250375703
  - # 5
    frequency:   38.5250375703
  - # 6
    frequency:   39.1793756329

- q-position: [    0.1100000,    0.0000000,    0.1100000 ]
  distance:    0.0616765
  band:
  - # 1
    frequency:    7.3991702565
  - # 2
    frequency:    7.3991702565
  - # 3
    frequency:   10.6312921247
  - # 4
    frequency:   38.4337570955
  - # 5
    frequency:   38.4337570955
  - # 6
    frequency:   39.2188229859

- q-position: [    0.1200000,    0.0000000,    0.1200000 ]
  distance:    0.0672834
  band:
  - # 1
    frequency:    8.0458554245
  - # 2
    frequency:    8.0458554245
  - # 3
    frequency:   11.5604988084
  - # 4
    frequency:   38.3336595275
  - # 5
    frequency:   38.3336595275
  - # 6
    frequency:   39.2593390240

- q-position: [    0.1300000,    0.0000000,    0.1300000 ]
  distance:    0.0728904
  band:
  - # 1
    frequency:    8.6859400352
  - # 2
    frequency:    8.6859400352
  - # 3
    frequency:   12.4801986428
  - # 4
    frequency:   38.2247473014
  - # 5
    frequency:   38.2247473014
  - # 6
    frequency:   39.3002780035

- q-position: [    0.1400000,    0.0000000,    0.1400000 ]
  distance:    0.0784973
  band:
  - # 1
    frequency:    9.3189462819
  - # 2
    frequency:    9.3189462819
  - # 3
    frequency:   13.3896900302
  - # 4
    frequency:   38.1070374210
  - # 5
    frequency:   38.1070374210
  - # 6
    frequency:   39.3409719920

- q-position: [    0.1500000,    0.0000000,    0.1500000 ]
  distance:    0.0841043
  band:
  - # 1
    frequency:    9.9444134461
  - # 2
    frequency:    9.9444134461
  - # 3
    frequency:   14.2882931581
  - # 4
    frequency:   37.9805643170
  - # 5
    frequency:   37.9805643170
  - # 6
    frequency:   39.3807372438

- q-position: [    0.1600000,    0.0000000,    0.1600000 ]
  distance:    0.0897112
  band:
  - # 1
    frequency:   10.5618989678
  - # 2
    frequency:   10.5618989678
  - # 3
    frequency:   15.1753516284
  - # 4
    frequency:   37.8453826879
  - # 5
    frequency:   37.8453826879
  - # 6
    frequency:   39.4188803941

- q-position: [    0.1700000,    0.0000000,    0.1700000 ]
  distance:    0.0953182
  band:
  - # 1
    frequency:   11.1709793833
  - # 2
    frequency:   11.1709793833
  - # 3
    frequency:   16.0502340483
  - # 4
    frequency:   37.7015702919
  - # 5
    frequency:   37.7015702919
  - # 6
    frequency:   39.4547043794

- q-position: [    0.1800000,    0.0000000,    0.1800000 ]
  distance:    0.1009251
  band:
  - # 1
    frequency:   11.7712510959
  - # 2
    frequency:   11.7712510959
  - # 3
    frequency:   16.9123355709
  - # 4
    frequency:   37.5492306614
  - # 5
    frequency:   37.5492306614
  - # 6
    frequency:   39.4875140044

- q-position: [    0.1900000,    0.0000000,    0.1900000 ]
  distance:    0.1065321
  band:
  - # 1
    frequency:   12.3623309367
  - # 2
    frequency:   12.3623309367
  - # 3
    frequency:   17.7610793745
  - # 4
    frequency:   37.3884957208
  - # 5
    frequency:   37.3884957208
  - # 6
    frequency:   39.5166210853

- q-position: [    0.2000000,    0.0000000,    0.2000000 ]
  distance:    0.1121391
  band:
  - # 1
    frequency:   12.9438564658
  - # 2
    frequency:   12.9438564658
  - # 3
    frequency:   18.5959180662
  - # 4
    frequency:   37.2195282948
  - # 5
    frequency:   37.2195282948
  - # 6
    frequency:   39.5413491149

- q-position: [    0.2100000,    0.0000000,    0.2100000 ]
  distance:    0.1177460
  band:
  - # 1
    frequency:   13.5154859605
  - # 2
    frequency:   13.5154859605
  - # 3
    frequency:   19.4163349973
  - # 4
    frequency:   37.0425245055
  - # 5
    frequency:   37.0425245055
  - # 6
    frequency:   39.5610374024

- q-position: [    0.2200000,    0.0000000,    0.2200000 ]
  distance:    0.1233530
  band:
  - # 1
    frequency:   14.0768980241
  - # 2
    frequency:   14.0768980241
  - # 3
    frequency:   20.2218454754
  - # 4
    frequency:   36.8577160695
  - # 5
    frequency:   36.8577160695
  - # 6
    frequency:   39.5750446587

- q-position: [    0.2300000,    0.0000000,    0.2300000 ]
  distance:    0.1289599
  band:
  - # 1
    frequency:   14.6277907444
  - # 2
    frequency:   14.6277907444
  - # 3
    frequency:   21.0119978593
  - # 4
    frequency:   36.6653725179
  - # 5
    frequency:   36.6653725179
  - # 6
    frequency:   39.5827520058

- q-position: [    0.2400000,    0.0000000,    0.2400000 ]
  distance:    0.1345669
  band:
  - # 1
    frequency:   15.1678803164
  - # 2
    frequency:   15.1678803164
  - # 3
    frequency:   21.7863745227
  - # 4
    frequency:   36.4658033800
  - # 5
    frequency:   36.4658033800
  - # 6
    frequency:   39.5835654027

- q-position: [    0.2500000,    0.0000000,    0.2500000 ]
  distance:    0.1401738
  band:
  - # 1
    frequency:   15.6968990331
  - # 2
    frequency:   15.6968990331
  - # 3
    frequency:   22.5445926713
  - # 4
    frequency:   36.2593603915
  - # 5
    frequency:   36.2593603915
  - # 6
    frequency:   39.5769174902

- q-position: [    0.2600000,    0.0000000,    0.2600000 ]
  distance:    0.1457808
  band:
  - # 1
    frequency:   16.2145925327
  - # 2
    frequency:   16.2145925327
  - # 3
    frequency:   23.2863050014
  - # 4
    frequency:   36.0464398065
  - # 5
    frequency:   36.0464398065
  - # 6
    frequency:   39.5622688658

- q-position: [    0.2700000,    0.0000000,    0.2700000 ]
  distance:    0.1513877
  band:
  - # 1
    frequency:   16.7207161715
  - # 2
    frequency:   16.7207161715
  - # 3
    frequency:   24.0112001861
  - # 4
    frequency:   35.8274849230
  - # 5
    frequency:   35.8274849230
  - # 6
    frequency:   39.5391088124

- q-position: [    0.2800000,    0.0000000,    0.2800000 ]
  distance:    0.1569947
  band:
  - # 1
    frequency:   17.2150303722
  - # 2
    frequency:   17.2150303722
  - # 3
    frequency:   24.7190031783
  - # 4
    frequency:   35.6029889585
  - # 5
    frequency:   35.6029889585
  - # 6
    frequency:   39.5069555074

- q-position: [    0.2900000,    0.0000000,    0.2900000 ]
  distance:    0.1626016
  band:
  - # 1
    frequency:   17.6972947690
  - # 2
    frequency:   17.6972947690
  - # 3
    frequency:   25.4094753199
  - # 4
    frequency:   35.3734984465
  - # 5
    frequency:   35.3734984465
  - # 6
    frequency:   39.4653557505

- q-position: [    0.3000000,    0.0000000,    0.3000000 ]
  distance:    0.1682086
  band:
  - # 1
    frequency:   18.1672609452
  - # 2
    frequency:   18.1672609452
  - # 3
    frequency:   26.0824142502
  - # 4
    frequency:   35.1396173664
  - # 5
    frequency:   35.1396173664
  - # 6
    frequency:   39.4138842515

- q-position: [    0.3100000,    0.0000000,    0.3100000 ]
  distance:    0.1738155
  band:
  - # 1
    frequency:   18.6246635192
  - # 2
    frequency:   18.6246635192
  - # 3
    frequency:   26.7376536060
  - # 4
    frequency:   34.9020122623
  - # 5
    frequency:   34.9020122623
  - # 6
    frequency:   39.3521425253

- q-position: [    0.3200000,    0.0000000,    0.3200000 ]
  distance:    0.1794225
  band:
  - # 1
    frequency:   19.0692093037
  - # 2
    frequency:   19.0692093037
  - # 3
    frequency:   27.3750625103
  - # 4
    frequency:   34.6614186529
  - # 5
    frequency:   34.6614186529
  - # 6
    frequency:   39.2797574463

- q-position: [    0.3300000,    0.0000000,    0.3300000 ]
  distance:    0.1850294
  band:
  - # 1
    frequency:   19.5005642182
  - # 2
    frequency:   19.5005642182
  - # 3
    frequency:   27.9945448490
  - # 4
    frequency:   34.4186490858
  - # 5
    frequency:   34.4186490858
  - # 6
    frequency:   39.1963795138

- q-position: [    0.3400000,    0.0000000,    0.3400000 ]
  distance:    0.1906364
  band:
  - # 1
    frequency:   19.9183376085
  - # 2
    frequency:   19.9183376085
  - # 3
    frequency:   28.5960383360
  - # 4
    frequency:   34.1746032306
  - # 5
    frequency:   34.1746032306
  - # 6
    frequency:   39.1016808877

- q-position: [    0.3500000,    0.0000000,    0.3500000 ]
  distance:    0.1962433
  band:
  - # 1
    frequency:   20.3220636049
  - # 2
    frequency:   20.3220636049
  - # 3
    frequency:   29.1795133729
  - # 4
    frequency:   33.9302804351
  - # 5
    frequency:   33.9302804351
  - # 6
    frequency:   38.9953532485

- q-position: [    0.3600000,    0.0000000,    0.3600000 ]
  distance:    0.2018503
  band:
  - # 1
    frequency:   20.7111791765
  - # 2
    frequency:   20.7111791765
  - # 3
    frequency:   29.7449717101
  - # 4
    frequency:   33.6867951545
  - # 5
    frequency:   33.6867951545
  - # 6
    frequency:   38.8771055404

- q-position: [    0.3700000,    0.0000000,    0.3700000 ]
  distance:    0.2074572
  band:
  - # 1
    frequency:   21.0849986271
  - # 2
    frequency:   21.0849986271
  - # 3
    frequency:   30.2924449211
  - # 4
    frequency:   33.4453955846
  - # 5
    frequency:   33.4453955846
  - # 6
    frequency:   38.7466616531

- q-position: [    0.3800000,    0.0000000,    0.3800000 ]
  distance:    0.2130642
  band:
  - # 1
    frequency:   21.4426845045
  - # 2
    frequency:   21.4426845045
  - # 3
    frequency:   30.8219927041
  - # 4
    frequency:   33.2074856156
  - # 5
    frequency:   33.2074856156
  - # 6
    frequency:   38.6037580976

- q-position: [    0.3900000,    0.0000000,    0.3900000 ]
  distance:    0.2186712
  band:
  - # 1
    frequency:   21.7832153284
  - # 2
    frequency:   21.7832153284
  - # 3
    frequency:   31.3337010288
  - # 4
    frequency:   32.9746497926
  - # 5
    frequency:   32.9746497926
  - # 6
    frequency:   38.4481417271

- q-position: [    0.4000000,    0.0000000,    0.4000000 ]
  distance:    0.2242781
  band:
  - # 1
    frequency:   22.1053513288
  - # 2
    frequency:   22.1053513288
  - # 3
    frequency:   31.8276801495
  - # 4
    frequency:   32.7486801947
  - # 5
    frequency:   32.7486801947
  - # 6
    frequency:   38.2795675536

- q-position: [    0.4100000,    0.0000000,    0.4100000 ]
  distance:    0.2298851
  band:
  - # 1
    frequency:   22.4076006752
  - # 2
    frequency:   22.4076006752
  - # 3
    frequency:   32.3040625082
  - # 4
    frequency:   32.5316028577
  - # 5
    frequency:   32.5316028577
  - # 6
    frequency:   38.0977967041

- q-position: [    0.4200000,    0.0000000,    0.4200000 ]
  distance:    0.2354920
  band:
  - # 1
    frequency:   22.6881906479
  - # 2
    frequency:   22.6881906479
  - # 3
    frequency:   32.3256993999
  - # 4
    frequency:   32.3256993999
  - # 5
    frequency:   32.7630005541
  - # 6
    frequency:   37.9025945581

- q-position: [    0.4300000,    0.0000000,    0.4300000 ]
  distance:    0.2410990
  band:
  - # 1
    frequency:   22.9450509377
  - # 2
    frequency:   22.9450509377
  - # 3
    frequency:   32.1335167753
  - # 4
    frequency:   32.1335167753
  - # 5
    frequency:   33.2046645098
  - # 6
    frequency:   37.6937291024

- q-position: [    0.4400000,    0.0000000,    0.4400000 ]
  distance:    0.2467059
  band:
  - # 1
    frequency:   23.1758195657
  - # 2
    frequency:   23.1758195657
  - # 3
    frequency:   31.9578547754
  - # 4
    frequency:   31.9578547754
  - # 5
    frequency:   33.6292401138
  - # 6
    frequency:   37.4709695328

- q-position: [    0.4500000,    0.0000000,    0.4500000 ]
  distance:    0.2523129
  band:
  - # 1
    frequency:   23.3778849704
  - # 2
    frequency:   23.3778849704
  - # 3
    frequency:   31.8017178377
  - # 4
    frequency:   31.8017178377
  - # 5
    frequency:   34.0369263738
  - # 6
    frequency:   37.2340851293

- q-position: [    0.4600000,    0.0000000,    0.4600000 ]
  distance:    0.2579198
  band:
  - # 1
    frequency:   23.5484788196
  - # 2
    frequency:   23.5484788196
  - # 3
    frequency:   31.6682167093
  - # 4
    frequency:   31.6682167093
  - # 5
    frequency:   34.4279333640
  - # 6
    frequency:   36.9828444212

- q-position: [    0.4700000,    0.0000000,    0.4700000 ]
  distance:    0.2635268
  band:
  - # 1
    frequency:   23.6848301989
  - # 2
    frequency:   23.6848301989
  - # 3
    frequency:   31.5604094055
  - # 4
    frequency:   31.5604094055
  - # 5
    frequency:   34.8024801005
  - # 6
    frequency:   36.7170146580

- q-position: [    0.4800000,    0.0000000,    0.4800000 ]
  distance:    0.2691337
  band:
  - # 1
    frequency:   23.7843800634
  - # 2
    frequency:   23.7843800634
  - # 3
    frequency:   31.4810826642
  - # 4
    frequency:   31.4810826642
  - # 5
    frequency:   35.1607925308
  - # 6
    frequency:   36.4363615900

- q-position: [    0.4900000,    0.0000000,    0.4900000 ]
  distance:    0.2747407
  band:
  - # 1
    frequency:   23.8450347098
  - # 2
    frequency:   23.8450347098
  - # 3
    frequency:   31.4324952097
  - # 4
    frequency:   31.4324952097
  - # 5
    frequency:   35.5031016690
  - # 6
    frequency:   36.1406495617

- q-position: [    0.5000000,    0.0000000,    0.5000000 ]
  distance:    0.2803476
  band:
  - # 1
    frequency:   23.8654138708
  - # 2
    frequency:   23.8654138708
  - # 3
    frequency:   31.4161272838
  - # 4
    frequency:   31.4161272838
  - # 5
    frequency:   35.8296419117
  - # 6
    frequency:   35.8296419117

- q-position: [    0.5000000,    0.0000000,    0.5000000 ]
  distance:    0.2803476
  band:
  - # 1
    frequency:   23.8654138708
  - # 2
    frequency:   23.8654138708
  - # 3
    frequency:   31.4161272838
  - # 4
    frequency:   31.4161272838
  - # 5
    frequency:   35.8296419117
  - # 6
    frequency:   35.8296419117

- q-position: [    0.5025000,    0.0050000,    0.5025000 ]
  distance:    0.2823300
  band:
  - # 1
    frequency:   23.8649226446
  - # 2
    frequency:   23.8680776889
  - # 3
    frequency:   31.4151712299
  - # 4
    frequency:   31.4165293991
  - # 5
    frequency:   35.8278960342
  - # 6
    frequency:   35.8304337564

- q-position: [    0.5050000,    0.0100000,    0.5050000 ]
  distance:    0.2843123
  band:
  - # 1
    frequency:   23.8634487902
  - # 2
    frequency:   23.8760656907
  - # 3
    frequency:   31.4123061745
  - # 4
    frequency:   31.4177357881
  - # 5
    frequency:   35.8226590782
  - # 6
    frequency:   35.8328059228

- q-position: [    0.5075000,    0.0150000,    0.5075000 ]
  distance:    0.2862947
  band:
  - # 1
    frequency:   23.8609917812
  - # 2
    frequency:   23.8893675319
  - # 3
    frequency:   31.4075413950
  - # 4
    frequency:   31.4197465798
  - # 5
    frequency:   35.8139330730
  - # 6
    frequency:   35.8367483495

- q-position: [    0.5100000,    0.0200000,    0.5100000 ]
  distance:    0.2882771
  band:
  - # 1
    frequency:   23.8575507406
  - # 2
    frequency:   23.9079660145
  - # 3
    frequency:   31.4008922175
  - # 4
    frequency:   31.4225619883
  - # 5
    frequency:   35.8017213989
  - # 6
    frequency:   35.8422444038

- q-position: [    0.5125000,    0.0250000,    0.5125000 ]
  distance:    0.2902594
  band:
  - # 1
    frequency:   23.8531244427
  - # 2
    frequency:   23.9318371511
  - # 3
    frequency:   31.3923798158
  - # 4
    frequency:   31.4261823103
  - # 5
    frequency:   35.7860287842
  - # 6
    frequency:   35.8492710825

- q-position: [    0.5150000,    0.0300000,    0.5150000 ]
  distance:    0.2922418
  band:
  - # 1
    frequency:   23.8477113147
  - # 2
    frequency:   23.9609502529
  - # 3
    frequency:   31.3820309395
  - # 4
    frequency:   31.4306079234
  - # 5
    frequency:   35.7668613009
  - # 6
    frequency:   35.8577992843

- q-position: [    0.5175000,    0.0350000,    0.5175000 ]
  distance:    0.2942241
  band:
  - # 1
    frequency:   23.8413094386
  - # 2
    frequency:   23.9952680423
  - # 3
    frequency:   31.3698775772
  - # 4
    frequency:   31.4358392821
  - # 5
    frequency:   35.7442263599
  - # 6
    frequency:   35.8677941460

- q-position: [    0.5200000,    0.0400000,    0.5200000 ]
  distance:    0.2962065
  band:
  - # 1
    frequency:   23.8339165547
  - # 2
    frequency:   24.0347467887
  - # 3
    frequency:   31.3559565651
  - # 4
    frequency:   31.4418769145
  - # 5
    frequency:   35.7181327042
  - # 6
    frequency:   35.8792154344

- q-position: [    0.5225000,    0.0450000,    0.5225000 ]
  distance:    0.2981888
  band:
  - # 1
    frequency:   23.8255300640
  - # 2
    frequency:   24.0793364648
  - # 3
    frequency:   31.3403091515
  - # 4
    frequency:   31.4487214173
  - # 5
    frequency:   35.6885904018
  - # 6
    frequency:   35.8920179818

- q-position: [    0.5250000,    0.0500000,    0.5250000 ]
  distance:    0.3001712
  band:
  - # 1
    frequency:   23.8161470328
  - # 2
    frequency:   24.1289809247
  - # 3
    frequency:   31.3229805270
  - # 4
    frequency:   31.4563734504
  - # 5
    frequency:   35.6556108365
  - # 6
    frequency:   35.9061521557

- q-position: [    0.5275000,    0.0550000,    0.5275000 ]
  distance:    0.3021536
  band:
  - # 1
    frequency:   23.8057641963
  - # 2
    frequency:   24.1836181003
  - # 3
    frequency:   31.3040193327
  - # 4
    frequency:   31.4648337312
  - # 5
    frequency:   35.6192066982
  - # 6
    frequency:   35.9215643511

- q-position: [    0.5300000,    0.0600000,    0.5300000 ]
  distance:    0.3041359
  band:
  - # 1
    frequency:   23.7943779637
  - # 2
    frequency:   24.2431802149
  - # 3
    frequency:   31.2834771563
  - # 4
    frequency:   31.4741030281
  - # 5
    frequency:   35.5793919725
  - # 6
    frequency:   35.9381974945

- q-position: [    0.5325000,    0.0650000,    0.5325000 ]
  distance:    0.3061183
  band:
  - # 1
    frequency:   23.7819844233
  - # 2
    frequency:   24.3075940125
  - # 3
    frequency:   31.2614080257
  - # 4
    frequency:   31.4841821525
  - # 5
    frequency:   35.5361819277
  - # 6
    frequency:   35.9559915502

- q-position: [    0.5350000,    0.0700000,    0.5350000 ]
  distance:    0.3081006
  band:
  - # 1
    frequency:   23.7685793479
  - # 2
    frequency:   24.3767810011
  - # 3
    frequency:   31.2378679109
  - # 4
    frequency:   31.4950719521
  - # 5
    frequency:   35.4895931025
  - # 6
    frequency:   35.9748840195

- q-position: [    0.5375000,    0.0750000,    0.5375000 ]
  distance:    0.3100830
  band:
  - # 1
    frequency:   23.7541582011
  - # 2
    frequency:   24.4506577074
  - # 3
    frequency:   31.2129142393
  - # 4
    frequency:   31.5067733012
  - # 5
    frequency:   35.4396432912
  - # 6
    frequency:   35.9948104252

- q-position: [    0.5400000,    0.0800000,    0.5400000 ]
  distance:    0.3120653
  band:
  - # 1
    frequency:   23.7387161439
  - # 2
    frequency:   24.5291359424
  - # 3
    frequency:   31.1866054332
  - # 4
    frequency:   31.5192870929
  - # 5
    frequency:   35.3863515288
  - # 6
    frequency:   36.0157047748

- q-position: [    0.5425000,    0.0850000,    0.5425000 ]
  distance:    0.3140477
  band:
  - # 1
    frequency:   23.7222480415
  - # 2
    frequency:   24.6121230742
  - # 3
    frequency:   31.1590004742
  - # 4
    frequency:   31.5326142285
  - # 5
    frequency:   35.3297380743
  - # 6
    frequency:   36.0374999974

- q-position: [    0.5450000,    0.0900000,    0.5450000 ]
  distance:    0.3160301
  band:
  - # 1
    frequency:   23.7047484706
  - # 2
    frequency:   24.6995223078
  - # 3
    frequency:   31.1301584968
  - # 4
    frequency:   31.5467556084
  - # 5
    frequency:   35.2698243935
  - # 6
    frequency:   36.0601283500

- q-position: [    0.5475000,    0.0950000,    0.5475000 ]
  distance:    0.3180124
  band:
  - # 1
    frequency:   23.6862117274
  - # 2
    frequency:   24.7912329693
  - # 3
    frequency:   31.1001384158
  - # 4
    frequency:   31.5617121208
  - # 5
    frequency:   35.2066331407
  - # 6
    frequency:   36.0835217914

- q-position: [    0.5500000,    0.1000000,    0.5500000 ]
  distance:    0.3199948
  band:
  - # 1
    frequency:   23.6666318354
  - # 2
    frequency:   24.8871507924
  - # 3
    frequency:   31.0689985884
  - # 4
    frequency:   31.5774846311
  - # 5
    frequency:   35.1401881394
  - # 6
    frequency:   36.1076123215

- q-position: [    0.5525000,    0.1050000,    0.5525000 ]
  distance:    0.3219771
  band:
  - # 1
    frequency:   23.6460025543
  - # 2
    frequency:   24.9871682063
  - # 3
    frequency:   31.0367965099
  - # 4
    frequency:   31.5940739705
  - # 5
    frequency:   35.0705143615
  - # 6
    frequency:   36.1323322867

- q-position: [    0.5550000,    0.1100000,    0.5550000 ]
  distance:    0.3239595
  band:
  - # 1
    frequency:   23.6243173887
  - # 2
    frequency:   25.0911746231
  - # 3
    frequency:   31.0035885456
  - # 4
    frequency:   31.6114809242
  - # 5
    frequency:   34.9976379068
  - # 6
    frequency:   36.1576146497

- q-position: [    0.5575000,    0.1150000,    0.5575000 ]
  distance:    0.3259418
  band:
  - # 1
    frequency:   23.6015695973
  - # 2
    frequency:   25.1990567224
  - # 3
    frequency:   30.9694296943
  - # 4
    frequency:   31.6297062192
  - # 5
    frequency:   34.9215859808
  - # 6
    frequency:   36.1833932273

- q-position: [    0.5600000,    0.1200000,    0.5600000 ]
  distance:    0.3279242
  band:
  - # 1
    frequency:   23.5777522027
  - # 2
    frequency:   25.3106987330
  - # 3
    frequency:   30.9343733851
  - # 4
    frequency:   31.6487505117
  - # 5
    frequency:   34.8423868714
  - # 6
    frequency:   36.2096028958

- q-position: [    0.5625000,    0.1250000,    0.5625000 ]
  distance:    0.3299066
  band:
  - # 1
    frequency:   23.5528580008
  - # 2
    frequency:   25.4259827099
  - # 3
    frequency:   30.8984713036
  - # 4
    frequency:   31.6686143748
  - # 5
    frequency:   34.7600699260
  - # 6
    frequency:   36.2361797675

- q-position: [    0.5650000,    0.1300000,    0.5650000 ]
  distance:    0.3318889
  band:
  - # 1
    frequency:   23.5268795716
  - # 2
    frequency:   25.5447888040
  - # 3
    frequency:   30.8617732450
  - # 4
    frequency:   31.6892982850
  - # 5
    frequency:   34.6746655267
  - # 6
    frequency:   36.2630613393

- q-position: [    0.5675000,    0.1350000,    0.5675000 ]
  distance:    0.3338713
  band:
  - # 1
    frequency:   23.4998092893
  - # 2
    frequency:   25.6669955265
  - # 3
    frequency:   30.8243269935
  - # 4
    frequency:   31.7108026093
  - # 5
    frequency:   34.5862050658
  - # 6
    frequency:   36.2901866164

- q-position: [    0.5700000,    0.1400000,    0.5700000 ]
  distance:    0.3358536
  band:
  - # 1
    frequency:   23.4716393330
  - # 2
    frequency:   25.7924800033
  - # 3
    frequency:   30.7861782236
  - # 4
    frequency:   31.7331275918
  - # 5
    frequency:   34.4947209202
  - # 6
    frequency:   36.3174962142

- q-position: [    0.5725000,    0.1450000,    0.5725000 ]
  distance:    0.3378360
  band:
  - # 1
    frequency:   23.4423616978
  - # 2
    frequency:   25.9211182221
  - # 3
    frequency:   30.7473704225
  - # 4
    frequency:   31.7562733400
  - # 5
    frequency:   34.4002464258
  - # 6
    frequency:   36.3449324389

- q-position: [    0.5750000,    0.1500000,    0.5750000 ]
  distance:    0.3398183
  band:
  - # 1
    frequency:   23.4119682063
  - # 2
    frequency:   26.0527852682
  - # 3
    frequency:   30.7079448295
  - # 4
    frequency:   31.7802398114
  - # 5
    frequency:   34.3028158519
  - # 6
    frequency:   36.3724393523

- q-position: [    0.5775000,    0.1550000,    0.5775000 ]
  distance:    0.3418007
  band:
  - # 1
    frequency:   23.3804505194
  - # 2
    frequency:   26.1873555509
  - # 3
    frequency:   30.6679403915
  - # 4
    frequency:   31.8050267999
  - # 5
    frequency:   34.2024643747
  - # 6
    frequency:   36.3999628194

- q-position: [    0.5800000,    0.1600000,    0.5800000 ]
  distance:    0.3437831
  band:
  - # 1
    frequency:   23.3478001484
  - # 2
    frequency:   26.3247030183
  - # 3
    frequency:   30.6273937326
  - # 4
    frequency:   31.8306339216
  - # 5
    frequency:   34.0992280523
  - # 6
    frequency:   36.4274505443

- q-position: [    0.5825000,    0.1650000,    0.5825000 ]
  distance:    0.3457654
  band:
  - # 1
    frequency:   23.3140084669
  - # 2
    frequency:   26.4647013604
  - # 3
    frequency:   30.5863391340
  - # 4
    frequency:   31.8570606018
  - # 5
    frequency:   33.9931437990
  - # 6
    frequency:   36.4548520941

- q-position: [    0.5850000,    0.1700000,    0.5850000 ]
  distance:    0.3477478
  band:
  - # 1
    frequency:   23.2790667225
  - # 2
    frequency:   26.6072241998
  - # 3
    frequency:   30.5448085248
  - # 4
    frequency:   31.8843060610
  - # 5
    frequency:   33.8842493619
  - # 6
    frequency:   36.4821189135

- q-position: [    0.5875000,    0.1750000,    0.5875000 ]
  distance:    0.3497301
  band:
  - # 1
    frequency:   23.2429660488
  - # 2
    frequency:   26.7521452696
  - # 3
    frequency:   30.5028314799
  - # 4
    frequency:   31.9123693016
  - # 5
    frequency:   33.7725832978
  - # 6
    frequency:   36.5092043323

- q-position: [    0.5900000,    0.1800000,    0.5900000 ]
  distance:    0.3517125
  band:
  - # 1
    frequency:   23.2056974782
  - # 2
    frequency:   26.8993385772
  - # 3
    frequency:   30.4604352259
  - # 4
    frequency:   31.9412490941
  - # 5
    frequency:   33.6581849534
  - # 6
    frequency:   36.5360635653

- q-position: [    0.5925000,    0.1850000,    0.5925000 ]
  distance:    0.3536948
  band:
  - # 1
    frequency:   23.1672519539
  - # 2
    frequency:   27.0486785535
  - # 3
    frequency:   30.4176446506
  - # 4
    frequency:   31.9709439646
  - # 5
    frequency:   33.5410944482
  - # 6
    frequency:   36.5626537088

- q-position: [    0.5950000,    0.1900000,    0.5950000 ]