  54   54
1 1
    44.717060904070202    -0.000000000000000    -0.000000000000000
     0.000000000000001    44.717060904070195     0.000000000000001
    -0.000000000000002    -0.000000000000004    44.717060904070188
1 2
     1.533371308051350     0.660949502161117     0.660949502161117
    -0.661001828062925    -1.571875216830605    -1.672672051051880
    -0.661001828062924    -1.672672051051880    -1.571875216830605
1 3
     1.533371308051350    -0.660949502161117    -0.660949502161117
     0.661001828062925    -1.571875216830605    -1.672672051051880
     0.661001828062924    -1.672672051051880    -1.571875216830605
1 4
    -1.571875216830606    -0.661001828062925    -1.672672051051881
     0.660949502161117     1.533371308051349     0.660949502161117
    -1.672672051051880    -0.661001828062924    -1.571875216830605
1 5
    -0.060613193283311     0.043353247084633    -0.043353247084633
     0.043353247084633    -0.060613193283311    -0.043353247084633
    -0.043353247084633    -0.043353247084633    -0.060613193283311
1 6
    -1.571875216830606     1.672672051051881     0.661001828062925
     1.672672051051880    -1.571875216830605    -0.661001828062924
    -0.660949502161117     0.660949502161117     1.533371308051350
1 7
    -1.571875216830606     0.661001828062925    -1.672672051051881
    -0.660949502161117     1.533371308051350    -0.660949502161117
    -1.672672051051880     0.661001828062924    -1.571875216830605
1 8
    -1.571875216830606     1.672672051051881    -0.661001828062925
     1.672672051051880    -1.571875216830605     0.661001828062924
     0.660949502161117    -0.660949502161117     1.533371308051349
1 9
    -0.060622032118075     0.043374460288069    -0.043374460288069
     0.043374460288069    -0.060622032118075    -0.043374460288069
    -0.043374460288069    -0.043374460288069    -0.060622032118075
1 10
    -1.571875216830606    -1.672672051051881    -0.661001828062925
    -1.672672051051880    -1.571875216830605    -0.661001828062924
     0.660949502161117     0.660949502161117     1.533371308051349
1 11
    -0.060613193283311    -0.043353247084633     0.043353247084633
    -0.043353247084633    -0.060613193283311    -0.043353247084633
     0.043353247084633    -0.043353247084633    -0.060613193283311
1 12
    -1.571875216830606     0.661001828062925     1.672672051051881
    -0.660949502161117     1.533371308051350     0.660949502161117
     1.672672051051880    -0.661001828062925    -1.571875216830605
1 13
    -0.060613193283311    -0.043353247084633    -0.043353247084633
    -0.043353247084633    -0.060613193283311     0.043353247084633
    -0.043353247084633     0.043353247084633    -0.060613193283311
1 14
    -0.060613193283311     0.043353247084633     0.043353247084633
     0.043353247084633    -0.060613193283311     0.043353247084633
     0.043353247084633     0.043353247084633    -0.060613193283311
1 15
    -0.115673477013963     0.000000000000000    -0.000000000000000
    -0.000000000000000    -0.066778810861867    -0.000000707106781
     0.000000000000000    -0.000000707106781    -0.066778810861867
1 16
     1.533371308051350    -0.660949502161117     0.660949502161117
     0.661001828062924    -1.571875216830605     1.672672051051880
    -0.661001828062925     1.672672051051880    -1.571875216830605
1 17
    -0.066778810861867    -0.000000000000000    -0.000000707106781
     0.000000000000000    -0.115673477013963    -0.000000000000000
    -0.000000707106781     0.000000000000000    -0.066778810861867
1 18
    -0.066778810861867     0.000000707106781     0.000000000000000
     0.000000707106781    -0.066778810861867    -0.000000000000000
     0.000000000000000     0.000000000000000    -0.115673477013963
1 19
    -1.571875216830606    -1.672672051051881     0.661001828062925
    -1.672672051051880    -1.571875216830605     0.661001828062924
    -0.660949502161116    -0.660949502161117     1.533371308051349
1 20
    -1.571875216830606    -0.661001828062925     1.672672051051881
     0.660949502161117     1.533371308051350    -0.660949502161117
     1.672672051051880     0.661001828062924    -1.571875216830605
1 21
    -0.060622032118075    -0.043374460288069     0.043374460288069
    -0.043374460288069    -0.060622032118075    -0.043374460288069
     0.043374460288069    -0.043374460288069    -0.060622032118075
1 22
     1.533371308051350     0.660949502161117    -0.660949502161117
    -0.661001828062924    -1.571875216830605     1.672672051051880
     0.661001828062924     1.672672051051880    -1.571875216830605
1 23
    -0.066778810861867    -0.000000707106781     0.000000000000000
    -0.000000707106781    -0.066778810861867    -0.000000000000000
     0.000000000000000     0.000000000000000    -0.115673477013963
1 24
    -0.066778810861867     0.000000000000000     0.000000707106781
    -0.000000000000000    -0.115673477013963    -0.000000000000000
     0.000000707106781     0.000000000000000    -0.066778810861867
1 25
    -0.060622032118075    -0.043374460288069    -0.043374460288069
    -0.043374460288069    -0.060622032118075     0.043374460288069
    -0.043374460288069     0.043374460288069    -0.060622032118075
1 26
    -0.115673477013963     0.000000000000000     0.000000000000000
     0.000000000000000    -0.066778810861867     0.000000707106781
     0.000000000000000     0.000000707106781    -0.066778810861867
1 27
    -0.060622032118075     0.043374460288069     0.043374460288069
     0.043374460288069    -0.060622032118075     0.043374460288069
     0.043374460288069     0.043374460288069    -0.060622032118075
1 28
    -9.308602215573270    -2.266835671283319    -2.266835671283319
    -2.266835671283319    -9.308602215573265    -2.266835671283318
    -2.266835671283318    -2.266835671283317    -9.308602215573263
1 29
    -0.653565362821881     0.000000000000000     0.000000000000000
    -0.000000000000000    -0.143053005134897    -0.160183020462532
     0.000000000000000    -0.160183020462532    -0.143053005134897
1 30
    -9.308602215573270     2.266835671283319     2.266835671283320
     2.266835671283319    -9.308602215573263    -2.266835671283319
     2.266835671283318    -2.266835671283318    -9.308602215573263
1 31
    -0.143053005134897     0.000000000000000    -0.160183020462532
    -0.000000000000000    -0.653565362821881    -0.000000000000000
    -0.160183020462532     0.000000000000000    -0.143053005134897
1 32
    -0.143053005134897     0.160183020462532    -0.000000000000000
     0.160183020462532    -0.143053005134897     0.000000000000000
    -0.000000000000000     0.000000000000000    -0.653565362821881
1 33
     0.047942546871229    -0.092269833546946     0.092269833546946
    -0.092250388110464     0.172861445049206     0.026264951057088
     0.092250388110464     0.026264951057088     0.172861445049206
1 34
    -9.308602215573268     2.266835671283320    -2.266835671283320
     2.266835671283319    -9.308602215573263     2.266835671283318
    -2.266835671283318     2.266835671283319    -9.308602215573265
1 35
     0.172861445049206    -0.092250388110464     0.026264951057088
    -0.092269833546946     0.047942546871229     0.092269833546946
     0.026264951057088     0.092250388110464     0.172861445049206
1 36
     0.172861445049206    -0.026264951057088     0.092250388110464
    -0.026264951057088     0.172861445049206     0.092250388110464
     0.092269833546946     0.092269833546946     0.047942546871229
1 37
    -0.143053005134897    -0.160183020462532    -0.000000000000000
    -0.160183020462532    -0.143053005134897    -0.000000000000000
     0.000000000000000     0.000000000000000    -0.653565362821881
1 38
    -0.143053005134897     0.000000000000000     0.160183020462532
    -0.000000000000000    -0.653565362821881     0.000000000000000
     0.160183020462532     0.000000000000000    -0.143053005134897
1 39
     0.047942546871229     0.092269833546946    -0.092269833546946
     0.092250388110464     0.172861445049206     0.026264951057088
    -0.092250388110464     0.026264951057088     0.172861445049206
1 40
    -0.653565362821881    -0.000000000000000    -0.000000000000000
    -0.000000000000000    -0.143053005134897     0.160183020462532
     0.000000000000000     0.160183020462532    -0.143053005134897
1 41
     0.048251198981217     0.019340961455710     0.019340961455710
     0.019340961455710     0.048251198981217     0.019340961455710
     0.019340961455710     0.019340961455710     0.048251198981217
1 42
     0.048251198981217    -0.019340961455710    -0.019340961455710
    -0.019340961455710     0.048251198981217     0.019340961455710
    -0.019340961455710     0.019340961455710     0.048251198981217
1 43
     0.172861445049206     0.092250388110464     0.026264951057088
     0.092269833546946     0.047942546871229    -0.092269833546946
     0.026264951057088    -0.092250388110464     0.172861445049206
1 44
     0.048251198981217    -0.019340961455710     0.019340961455710
    -0.019340961455710     0.048251198981217    -0.019340961455710
     0.019340961455710    -0.019340961455710     0.048251198981217
1 45
     0.172861445049206    -0.026264951057088    -0.092250388110464
    -0.026264951057088     0.172861445049206    -0.092250388110464
    -0.092269833546946    -0.092269833546946     0.047942546871229
1 46
    -9.308602215573268    -2.266835671283320     2.266835671283319
    -2.266835671283319    -9.308602215573263     2.266835671283318
     2.266835671283319     2.266835671283320    -9.308602215573265
1 47
     0.172861445049206     0.026264951057088    -0.092250388110464
     0.026264951057088     0.172861445049206     0.092250388110464
    -0.092269833546946     0.092269833546946     0.047942546871229
1 48
     0.172861445049206     0.092250388110464    -0.026264951057088
     0.092269833546946     0.047942546871229     0.092269833546946
    -0.026264951057088     0.092250388110464     0.172861445049206
1 49
     0.172861445049206     0.026264951057088     0.092250388110464
     0.026264951057088     0.172861445049206    -0.092250388110464
     0.092269833546946    -0.092269833546946     0.047942546871229
1 50
     0.048251198981217     0.019340961455710    -0.019340961455710
     0.019340961455710     0.048251198981217    -0.019340961455710
    -0.019340961455710    -0.019340961455710     0.048251198981217
1 51
     0.172861445049206    -0.092250388110464    -0.026264951057088
    -0.092269833546946     0.047942546871229    -0.092269833546946
    -0.026264951057088    -0.092250388110464     0.172861445049206
1 52
     0.047942546871229     0.092269833546946     0.092269833546946
     0.092250388110464     0.172861445049206    -0.026264951057088
     0.092250388110464    -0.026264951057088     0.172861445049206
1 53
     0.047942546871229    -0.092269833546946    -0.092269833546946
    -0.092250388110464     0.172861445049206    -0.026264951057088
    -0.092250388110464    -0.026264951057088     0.172861445049206
1 54
     0.053942347909597     0.000000000000000    -0.000000000000000
     0.000000000000000     0.053942347909597     0.000000000000000
    -0.000000000000000    -0.000000000000000     0.053942347909597
2 1
     1.533371308051350    -0.660949502161117    -0.660949502161117
     0.661001828062925    -1.571875216830605    -1.672672051051880
     0.661001828062924    -1.672672051051880    -1.571875216830605
2 2
    44.717060904070202    -0.000000000000001    -0.000000000000000
    -0.000000000000000    44.717060904070195     0.000000000000002
    -0.000000000000002    -0.000000000000003    44.717060904070188
2 3
     1.533371308051350     0.660949502161117     0.660949502161117
    -0.661001828062925    -1.571875216830605    -1.672672051051880
    -0.661001828062924    -1.672672051051880    -1.571875216830605
2 4
    -1.571875216830606     1.672672051051881     0.661001828062925
     1.672672051051880    -1.571875216830605    -0.661001828062924
    -0.660949502161117     0.660949502161117     1.533371308051350
2 5
    -1.571875216830606    -0.661001828062925    -1.672672051051881
     0.660949502161117     1.533371308051349     0.660949502161117
    -1.672672051051880    -0.661001828062924    -1.571875216830605
2 6
    -0.060613193283311     0.043353247084633    -0.043353247084633
     0.043353247084633    -0.060613193283311    -0.043353247084633
    -0.043353247084633    -0.043353247084633    -0.060613193283311
2 7
    -0.060622032118075     0.043374460288069    -0.043374460288069
     0.043374460288069    -0.060622032118075    -0.043374460288069
    -0.043374460288069    -0.043374460288069    -0.060622032118075
2 8
    -1.571875216830606     0.661001828062925    -1.672672051051881
    -0.660949502161117     1.533371308051350    -0.660949502161117
    -1.672672051051880     0.661001828062924    -1.571875216830605
2 9
    -1.571875216830606     1.672672051051881    -0.661001828062925
     1.672672051051880    -1.571875216830605     0.661001828062924
     0.660949502161117    -0.660949502161117     1.533371308051349
2 10
    -1.571875216830606     0.661001828062925     1.672672051051881
    -0.660949502161117     1.533371308051350     0.660949502161117
     1.672672051051880    -0.661001828062925    -1.571875216830605
2 11
    -1.571875216830606    -1.672672051051881    -0.661001828062925
    -1.672672051051880    -1.571875216830605    -0.661001828062924
     0.660949502161117     0.660949502161117     1.533371308051349
2 12
    -0.060613193283311    -0.043353247084633     0.043353247084633
    -0.043353247084633    -0.060613193283311    -0.043353247084633
     0.043353247084633    -0.043353247084633    -0.060613193283311
2 13
    -0.115673477013963     0.000000000000000    -0.000000000000000
    -0.000000000000000    -0.066778810861867    -0.000000707106781
     0.000000000000000    -0.000000707106781    -0.066778810861867
2 14
    -0.060613193283311    -0.043353247084633    -0.043353247084633
    -0.043353247084633    -0.060613193283311     0.043353247084633
    -0.043353247084633     0.043353247084633    -0.060613193283311
2 15
    -0.060613193283311     0.043353247084633     0.043353247084633
     0.043353247084633    -0.060613193283311     0.043353247084633
     0.043353247084633     0.043353247084633    -0.060613193283311
2 16
    -0.066778810861867     0.000000707106781     0.000000000000000
     0.000000707106781    -0.066778810861867    -0.000000000000000
     0.000000000000000     0.000000000000000    -0.115673477013963
2 17
     1.533371308051350    -0.660949502161117     0.660949502161117
     0.661001828062924    -1.571875216830605     1.672672051051880
    -0.661001828062925     1.672672051051880    -1.571875216830605
2 18
    -0.066778810861867    -0.000000000000000    -0.000000707106781
     0.000000000000000    -0.115673477013963    -0.000000000000000
    -0.000000707106781     0.000000000000000    -0.066778810861867
2 19
    -0.060622032118075    -0.043374460288069     0.043374460288069
    -0.043374460288069    -0.060622032118075    -0.043374460288069
     0.043374460288069    -0.043374460288069    -0.060622032118075
2 20
    -1.571875216830606    -1.672672051051881     0.661001828062925
    -1.672672051051880    -1.571875216830605     0.661001828062924
    -0.660949502161116    -0.660949502161117     1.533371308051349
2 21
    -1.571875216830606    -0.661001828062925     1.672672051051881
     0.660949502161117     1.533371308051350    -0.660949502161117
     1.672672051051880     0.661001828062924    -1.571875216830605
2 22
    -0.066778810861867     0.000000000000000     0.000000707106781
     0.000000000000000    -0.115673477013963    -0.000000000000000
     0.000000707106781     0.000000000000000    -0.066778810861867
2 23
     1.533371308051350     0.660949502161117    -0.660949502161117
    -0.661001828062924    -1.571875216830605     1.672672051051880
     0.661001828062924     1.672672051051880    -1.571875216830605
2 24
    -0.066778810861867    -0.000000707106781     0.000000000000000
    -0.000000707106781    -0.066778810861867    -0.000000000000000
     0.000000000000000     0.000000000000000    -0.115673477013963
2 25
    -0.060622032118075     0.043374460288069     0.043374460288069
     0.043374460288069    -0.060622032118075     0.043374460288069
     0.043374460288069     0.043374460288069    -0.060622032118075
2 26
    -0.060622032118075    -0.043374460288069    -0.043374460288069
    -0.043374460288069    -0.060622032118075     0.043374460288069
    -0.043374460288069     0.043374460288069    -0.060622032118075
2 27
    -0.115673477013963     0.000000000000000     0.000000000000000
     0.000000000000000    -0.066778810861867     0.000000707106781
     0.000000000000000     0.000000707106781    -0.066778810861867
2 28
    -9.308602215573270     2.266835671283319     2.266835671283320
     2.266835671283319    -9.308602215573263    -2.266835671283319
     2.266835671283318    -2.266835671283318    -9.308602215573263
2 29
    -9.308602215573270    -2.266835671283319    -2.266835671283319
    -2.266835671283319    -9.308602215573265    -2.266835671283318
    -2.266835671283318    -2.266835671283317    -9.308602215573263
2 30
    -0.653565362821881     0.000000000000000    -0.000000000000000
    -0.000000000000000    -0.143053005134897    -0.160183020462532
     0.000000000000000    -0.160183020462532    -0.143053005134897
2 31
     0.047942546871229    -0.092269833546946     0.092269833546946
    -0.092250388110464     0.172861445049206     0.026264951057088
     0.092250388110464     0.026264951057088     0.172861445049206
2 32
    -0.143053005134897     0.000000000000000    -0.160183020462532
    -0.000000000000000    -0.653565362821881    -0.000000000000000
    -0.160183020462532     0.000000000000000    -0.143053005134897
2 33
    -0.143053005134897     0.160183020462532    -0.000000000000000
     0.160183020462532    -0.143053005134897     0.000000000000000
    -0.000000000000000     0.000000000000000    -0.653565362821881
2 34
     0.172861445049206    -0.026264951057088     0.092250388110464
    -0.026264951057088     0.172861445049206     0.092250388110464
     0.092269833546946     0.092269833546946     0.047942546871229
2 35
    -9.308602215573268     2.266835671283320    -2.266835671283320
     2.266835671283319    -9.308602215573263     2.266835671283318
    -2.266835671283318     2.266835671283319    -9.308602215573265
2 36
     0.172861445049206    -0.092250388110464     0.026264951057088
    -0.092269833546946     0.047942546871229     0.092269833546946
     0.026264951057088     0.092250388110464     0.172861445049206
2 37
     0.047942546871229     0.092269833546946    -0.092269833546946
     0.092250388110464     0.172861445049206     0.026264951057088
    -0.092250388110464     0.026264951057088     0.172861445049206
2 38
    -0.143053005134897    -0.160183020462532     0.000000000000000
    -0.160183020462532    -0.143053005134897    -0.000000000000000
     0.000000000000000     0.000000000000000    -0.653565362821881
2 39
    -0.143053005134897     0.000000000000000     0.160183020462532
    -0.000000000000000    -0.653565362821881    -0.000000000000000
     0.160183020462532     0.000000000000000    -0.143053005134897
2 40
     0.048251198981217    -0.019340961455710    -0.019340961455710
    -0.019340961455710     0.048251198981217     0.019340961455710
    -0.019340961455710     0.019340961455710     0.048251198981217
2 41
    -0.653565362821881     0.000000000000000    -0.000000000000000
    -0.000000000000000    -0.143053005134897     0.160183020462532
     0.000000000000000     0.160183020462532    -0.143053005134897
2 42
     0.048251198981217     0.019340961455710     0.019340961455710
     0.019340961455710     0.048251198981217     0.019340961455710
     0.019340961455710     0.019340961455710     0.048251198981217
2 43
     0.172861445049206    -0.026264951057088    -0.092250388110464
    -0.026264951057088     0.172861445049206    -0.092250388110464
    -0.092269833546946    -0.092269833546946     0.047942546871229
2 44
     0.172861445049206     0.092250388110464     0.026264951057088
     0.092269833546946     0.047942546871229    -0.092269833546946
     0.026264951057088    -0.092250388110464     0.172861445049206
2 45
     0.048251198981217    -0.019340961455710     0.019340961455710
    -0.019340961455710     0.048251198981217    -0.019340961455710
     0.019340961455710    -0.019340961455710     0.048251198981217
2 46
     0.172861445049206     0.092250388110464    -0.026264951057088
     0.092269833546946     0.047942546871229     0.092269833546946
    -0.026264951057088     0.092250388110464     0.172861445049206
2 47
    -9.308602215573268    -2.266835671283320     2.266835671283319
    -2.266835671283319    -9.308602215573263     2.266835671283318
     2.266835671283319     2.266835671283320    -9.308602215573265
2 48
     0.172861445049206     0.026264951057088    -0.092250388110464
     0.026264951057088     0.172861445049206     0.092250388110464
    -0.092269833546946     0.092269833546946     0.047942546871229
2 49
     0.172861445049206    -0.092250388110464    -0.026264951057088
    -0.092269833546946     0.047942546871229    -0.092269833546946
    -0.026264951057088    -0.092250388110464     0.172861445049206
2 50
     0.172861445049206     0.026264951057088     0.092250388110464
     0.026264951057088     0.172861445049206    -0.092250388110464
     0.092269833546946    -0.092269833546946     0.047942546871229
2 51
     0.048251198981217     0.019340961455710    -0.019340961455710
     0.019340961455710     0.048251198981217    -0.019340961455710
    -0.019340961455710    -0.019340961455710     0.048251198981217
2 52
     0.053942347909597    -0.000000000000000    -0.000000000000000
     0.000000000000000     0.053942347909597     0.000000000000000
    -0.000000000000000    -0.000000000000000     0.053942347909597
2 53
     0.047942546871229     0.092269833546946     0.092269833546946
     0.092250388110464     0.172861445049206    -0.026264951057088
     0.092250388110464    -0.026264951057088     0.172861445049206
2 54
     0.047942546871229    -0.092269833546946    -0.092269833546946
    -0.092250388110464     0.172861445049206    -0.026264951057088
    -0.092250388110464    -0.026264951057088     0.172861445049206
3 1
     1.533371308051350     0.660949502161117     0.660949502161117
    -0.661001828062925    -1.571875216830605    -1.672672051051880
    -0.661001828062924    -1.672672051051880    -1.571875216830605
3 2
     1.533371308051350    -0.660949502161117    -0.660949502161117
     0.661001828062925    -1.571875216830605    -1.672672051051880
     0.661001828062924    -1.672672051051880    -1.571875216830605
3 3
    44.717060904070202    -0.000000000000001    -0.000000000000000
    -0.000000000000000    44.717060904070195     0.000000000000002
    -0.000000000000002    -0.000000000000003    44.717060904070188
3 4
    -0.060613193283311     0.043353247084633    -0.043353247084633
     0.043353247084633    -0.060613193283311    -0.043353247084633
    -0.043353247084633    -0.043353247084633    -0.060613193283311
3 5
    -1.571875216830606     1.672672051051881     0.661001828062925
     1.672672051051880    -1.571875216830605    -0.661001828062924
    -0.660949502161117     0.660949502161117     1.533371308051350
3 6
    -1.571875216830606    -0.661001828062925    -1.672672051051881
     0.660949502161117     1.533371308051349     0.660949502161117
    -1.672672051051880    -0.661001828062924    -1.571875216830605
3 7
    -1.571875216830606     1.672672051051881    -0.661001828062925
     1.672672051051880    -1.571875216830605     0.661001828062924
     0.660949502161117    -0.660949502161117     1.533371308051349
3 8
    -0.060622032118075     0.043374460288069    -0.043374460288069
     0.043374460288069    -0.060622032118075    -0.043374460288069
    -0.043374460288069    -0.043374460288069    -0.060622032118075
3 9
    -1.571875216830606     0.661001828062925    -1.672672051051881
    -0.660949502161117     1.533371308051350    -0.660949502161117
    -1.672672051051880     0.661001828062924    -1.571875216830605
3 10
    -0.060613193283311    -0.043353247084633     0.043353247084633
    -0.043353247084633    -0.060613193283311    -0.043353247084633
     0.043353247084633    -0.043353247084633    -0.060613193283311
3 11
    -1.571875216830606     0.661001828062925     1.672672051051881
    -0.660949502161117     1.533371308051350     0.660949502161117
     1.672672051051880    -0.661001828062925    -1.571875216830605
3 12
    -1.571875216830606    -1.672672051051881    -0.661001828062925
    -1.672672051051880    -1.571875216830605    -0.661001828062924
     0.660949502161117     0.660949502161117     1.533371308051349
3 13
    -0.060613193283311     0.043353247084633     0.043353247084633
     0.043353247084633    -0.060613193283311     0.043353247084633
     0.043353247084633     0.043353247084633    -0.060613193283311
3 14
    -0.115673477013963     0.000000000000000    -0.000000000000000
    -0.000000000000000    -0.066778810861867    -0.000000707106781
     0.000000000000000    -0.000000707106781    -0.066778810861867
3 15
    -0.060613193283311    -0.043353247084633    -0.043353247084633
    -0.043353247084633    -0.060613193283311     0.043353247084633
    -0.043353247084633     0.043353247084633    -0.060613193283311
3 16
    -0.066778810861867    -0.000000000000000    -0.000000707106781
     0.000000000000000    -0.115673477013963    -0.000000000000000
    -0.000000707106781     0.000000000000000    -0.066778810861867
3 17
    -0.066778810861867     0.000000707106781     0.000000000000000
     0.000000707106781    -0.066778810861867    -0.000000000000000
     0.000000000000000     0.000000000000000    -0.115673477013963
3 18
     1.533371308051350    -0.660949502161117     0.660949502161117
     0.661001828062924    -1.571875216830605     1.672672051051880
    -0.661001828062925     1.672672051051880    -1.571875216830605
3 19
    -1.571875216830606    -0.661001828062925     1.672672051051881
     0.660949502161117     1.533371308051350    -0.660949502161117
     1.672672051051880     0.661001828062924    -1.571875216830605
3 20
    -0.060622032118075    -0.043374460288069     0.043374460288069
    -0.043374460288069    -0.060622032118075    -0.043374460288069
     0.043374460288069    -0.043374460288069    -0.060622032118075
3 21
    -1.571875216830606    -1.672672051051881     0.661001828062925
    -1.672672051051880    -1.571875216830605     0.661001828062924
    -0.660949502161116    -0.660949502161117     1.533371308051349
3 22
    -0.066778810861867    -0.000000707106781     0.000000000000000
    -0.000000707106781    -0.066778810861867    -0.000000000000000
     0.000000000000000     0.000000000000000    -0.115673477013963
3 23
    -0.066778810861867     0.000000000000000     0.000000707106781
     0.000000000000000    -0.115673477013963    -0.000000000000000
     0.000000707106781     0.000000000000000    -0.066778810861867
3 24
     1.533371308051350     0.660949502161117    -0.660949502161117
    -0.661001828062924    -1.571875216830605     1.672672051051880
     0.661001828062924     1.672672051051880    -1.571875216830605
3 25
    -0.115673477013963     0.000000000000000     0.000000000000000
     0.000000000000000    -0.066778810861867     0.000000707106781
     0.000000000000000     0.000000707106781    -0.066778810861867
3 26
    -0.060622032118075     0.043374460288069     0.043374460288069
     0.043374460288069    -0.060622032118075     0.043374460288069
     0.043374460288069     0.043374460288069    -0.060622032118075
3 27
    -0.060622032118075    -0.043374460288069    -0.043374460288069
    -0.043374460288069    -0.060622032118075     0.043374460288069
    -0.043374460288069     0.043374460288069    -0.060622032118075
3 28
    -0.653565362821881     0.000000000000000    -0.000000000000000
    -0.000000000000000    -0.143053005134897    -0.160183020462532
     0.000000000000000    -0.160183020462532    -0.143053005134897
3 29
    -9.308602215573270     2.266835671283319     2.266835671283320
     2.266835671283319    -9.308602215573263    -2.266835671283319
     2.266835671283318    -2.266835671283318    -9.308602215573263
3 30
    -9.308602215573270    -2.266835671283319    -2.266835671283319
    -2.266835671283319    -9.308602215573265    -2.266835671283318
    -2.266835671283318    -2.266835671283317    -9.308602215573263
3 31
    -0.143053005134897     0.160183020462532    -0.000000000000000
     0.160183020462532    -0.143053005134897     0.000000000000000
    -0.000000000000000     0.000000000000000    -0.653565362821881
3 32
     0.047942546871229    -0.092269833546946     0.092269833546946
    -0.092250388110464     0.172861445049206     0.026264951057088
     0.092250388110464     0.026264951057088     0.172861445049206
3 33
    -0.143053005134897     0.000000000000000    -0.160183020462532
    -0.000000000000000    -0.653565362821881    -0.000000000000000
    -0.160183020462532     0.000000000000000    -0.143053005134897
3 34
     0.172861445049206    -0.092250388110464     0.026264951057088
    -0.092269833546946     0.047942546871229     0.092269833546946
     0.026264951057088     0.092250388110464     0.172861445049206
3 35
     0.172861445049206    -0.026264951057088     0.092250388110464
    -0.026264951057088     0.172861445049206     0.092250388110464
     0.092269833546946     0.092269833546946     0.047942546871229
3 36
    -9.308602215573268     2.266835671283320    -2.266835671283320
     2.266835671283319    -9.308602215573263     2.266835671283318
    -2.266835671283318     2.266835671283319    -9.308602215573265
3 37
    -0.143053005134897     0.000000000000000     0.160183020462532
    -0.000000000000000    -0.653565362821881    -0.000000000000000
     0.160183020462532     0.000000000000000    -0.143053005134897
3 38
     0.047942546871229     0.092269833546946    -0.092269833546946
     0.092250388110464     0.172861445049206     0.026264951057088