phonopy:
  version: 2.17.1
  frequency_unit_conversion_factor: 15.633302
  symmetry_tolerance: 1.00000e-05
  configuration:
    atom_name: "C"
    dim: "3 3 3"
    band: "0.000 0.000 0.000   0.500 0.000 0.500   0.625 0.250 0.625   0.375 0.375 0.750   0.000 0.000 0.000"
    band_labels: "G X U K G"

physical_unit:
  atomic_mass: "AMU"
  length: "angstrom"
  force_constants: "eV/angstrom^2"

space_group:
  type: "Fd-3m"
  number: 227
  Hall_symbol: "F 4d 2 3 -1d"

supercell_matrix:
- [   3,   0,   0 ]
- [   0,   3,   0 ]
- [   0,   0,   3 ]

primitive_cell:
  lattice:
  - [     0.000000000000000,     1.783500000000000,     1.783500000000000 ] # a
  - [     1.783500000000000,     0.000000000000000,     1.783500000000000 ] # b
  - [     1.783500000000000,     1.783500000000000,     0.000000000000000 ] # c
  points:
  - symbol: C  # 1
    coordinates: [  0.000000000000000,  0.000000000000000,  0.000000000000000 ]
    mass: 12.010700
  - symbol: C  # 2
    coordinates: [  0.250000000000000,  0.250000000000000,  0.250000000000000 ]
    mass: 12.010700
  reciprocal_lattice: # without 2pi
  - [    -0.280347631062518,     0.280347631062518,     0.280347631062518 ] # a*
  - [     0.280347631062518,    -0.280347631062518,     0.280347631062518 ] # b*
  - [     0.280347631062518,     0.280347631062518,    -0.280347631062518 ] # c*

unit_cell:
  lattice:
  - [     0.000000000000000,     1.783500000000000,     1.783500000000000 ] # a
  - [     1.783500000000000,     0.000000000000000,     1.783500000000000 ] # b
  - [     1.783500000000000,     1.783500000000000,     0.000000000000000 ] # c
  points:
  - symbol: C  # 1
    coordinates: [  0.000000000000000,  0.000000000000000,  0.000000000000000 ]
    mass: 12.010700
    reduced_to: 1
  - symbol: C  # 2
    coordinates: [  0.250000000000000,  0.250000000000000,  0.250000000000000 ]
    mass: 12.010700
    reduced_to: 2

supercell:
  lattice:
  - [     0.000000000000000,     5.350500000000000,     5.350500000000000 ] # a
  - [     5.350500000000000,     0.000000000000000,     5.350500000000000 ] # b
  - [     5.350500000000000,     5.350500000000000,     0.000000000000000 ] # c
  points:
  - symbol: C  # 1
    coordinates: [  0.000000000000000,  0.000000000000000,  0.000000000000000 ]
    mass: 12.010700
    reduced_to: 1
  - symbol: C  # 2
    coordinates: [  0.333333333333333,  0.000000000000000,  0.000000000000000 ]
    mass: 12.010700
    reduced_to: 1
  - symbol: C  # 3
    coordinates: [  0.666666666666667,  0.000000000000000,  0.000000000000000 ]
    mass: 12.010700
    reduced_to: 1
  - symbol: C  # 4
    coordinates: [  0.000000000000000,  0.333333333333333,  0.000000000000000 ]
    mass: 12.010700
    reduced_to: 1
  - symbol: C  # 5
    coordinates: [  0.333333333333333,  0.333333333333333,  0.000000000000000 ]
    mass: 12.010700
    reduced_to: 1
  - symbol: C  # 6
    coordinates: [  0.666666666666667,  0.333333333333333,  0.000000000000000 ]
    mass: 12.010700
    reduced_to: 1
  - symbol: C  # 7
    coordinates: [  0.000000000000000,  0.666666666666667,  0.000000000000000 ]
    mass: 12.010700
    reduced_to: 1
  - symbol: C  # 8
    coordinates: [  0.333333333333333,  0.666666666666667,  0.000000000000000 ]
    mass: 12.010700
    reduced_to: 1
  - symbol: C  # 9
    coordinates: [  0.666666666666667,  0.666666666666667,  0.000000000000000 ]
    mass: 12.010700
    reduced_to: 1
  - symbol: C  # 10
    coordinates: [  0.000000000000000,  0.000000000000000,  0.333333333333333 ]
    mass: 12.010700
    reduced_to: 1
  - symbol: C  # 11
    coordinates: [  0.333333333333333,  0.000000000000000,  0.333333333333333 ]
    mass: 12.010700
    reduced_to: 1
  - symbol: C  # 12
    coordinates: [  0.666666666666667,  0.000000000000000,  0.333333333333333 ]
    mass: 12.010700
    reduced_to: 1
  - symbol: C  # 13
    coordinates: [  0.000000000000000,  0.333333333333333,  0.333333333333333 ]
    mass: 12.010700
    reduced_to: 1
  - symbol: C  # 14
    coordinates: [  0.333333333333333,  0.333333333333333,  0.333333333333333 ]
    mass: 12.010700
    reduced_to: 1
  - symbol: C  # 15
    coordinates: [  0.666666666666667,  0.333333333333333,  0.333333333333333 ]
    mass: 12.010700
    reduced_to: 1
  - symbol: C  # 16
    coordinates: [  0.000000000000000,  0.666666666666667,  0.333333333333333 ]
    mass: 12.010700
    reduced_to: 1
  - symbol: C  # 17
    coordinates: [  0.333333333333333,  0.666666666666667,  0.333333333333333 ]
    mass: 12.010700
    reduced_to: 1
  - symbol: C  # 18
    coordinates: [  0.666666666666667,  0.666666666666667,  0.333333333333333 ]
    mass: 12.010700
    reduced_to: 1
  - symbol: C  # 19
    coordinates: [  0.000000000000000,  0.000000000000000,  0.666666666666667 ]
    mass: 12.010700
    reduced_to: 1
  - symbol: C  # 20
    coordinates: [  0.333333333333333,  0.000000000000000,  0.666666666666667 ]
    mass: 12.010700
    reduced_to: 1
  - symbol: C  # 21
    coordinates: [  0.666666666666667,  0.000000000000000,  0.666666666666667 ]
    mass: 12.010700
    reduced_to: 1
  - symbol: C  # 22
    coordinates: [  0.000000000000000,  0.333333333333333,  0.666666666666667 ]
    mass: 12.010700
    reduced_to: 1
  - symbol: C  # 23
    coordinates: [  0.333333333333333,  0.333333333333333,  0.666666666666667 ]
    mass: 12.010700
    reduced_to: 1
  - symbol: C  # 24
    coordinates: [  0.666666666666667,  0.333333333333333,  0.666666666666667 ]
    mass: 12.010700
    reduced_to: 1
  - symbol: C  # 25
    coordinates: [  0.000000000000000,  0.666666666666667,  0.666666666666667 ]
    mass: 12.010700
    reduced_to: 1
  - symbol: C  # 26
    coordinates: [  0.333333333333333,  0.666666666666667,  0.666666666666667 ]
    mass: 12.010700
    reduced_to: 1
  - symbol: C  # 27
    coordinates: [  0.666666666666667,  0.666666666666667,  0.666666666666667 ]
    mass: 12.010700
    reduced_to: 1
  - symbol: C  # 28
    coordinates: [  0.083333333333333,  0.083333333333333,  0.083333333333333 ]
    mass: 12.010700
    reduced_to: 28
  - symbol: C  # 29
    coordinates: [  0.416666666666667,  0.083333333333333,  0.083333333333333 ]
    mass: 12.010700
    reduced_to: 28
  - symbol: C  # 30
    coordinates: [  0.750000000000000,  0.083333333333333,  0.083333333333333 ]
    mass: 12.010700
    reduced_to: 28
  - symbol: C  # 31
    coordinates: [  0.083333333333333,  0.416666666666667,  0.083333333333333 ]
    mass: 12.010700
    reduced_to: 28
  - symbol: C  # 32
    coordinates: [  0.416666666666667,  0.416666666666667,  0.083333333333333 ]
    mass: 12.010700
    reduced_to: 28
  - symbol: C  # 33
    coordinates: [  0.750000000000000,  0.416666666666667,  0.083333333333333 ]
    mass: 12.010700
    reduced_to: 28
  - symbol: C  # 34
    coordinates: [  0.083333333333333,  0.750000000000000,  0.083333333333333 ]
    mass: 12.010700
    reduced_to: 28
  - symbol: C  # 35
    coordinates: [  0.416666666666667,  0.750000000000000,  0.083333333333333 ]
    mass: 12.010700
    reduced_to: 28
  - symbol: C  # 36
    coordinates: [  0.750000000000000,  0.750000000000000,  0.083333333333333 ]
    mass: 12.010700
    reduced_to: 28
  - symbol: C  # 37
    coordinates: [  0.083333333333333,  0.083333333333333,  0.416666666666667 ]
    mass: 12.010700
    reduced_to: 28
  - symbol: C  # 38
    coordinates: [  0.416666666666667,  0.083333333333333,  0.416666666666667 ]
    mass: 12.010700
    reduced_to: 28
  - symbol: C  # 39
    coordinates: [  0.750000000000000,  0.083333333333333,  0.416666666666667 ]
    mass: 12.010700
    reduced_to: 28
  - symbol: C  # 40
    coordinates: [  0.083333333333333,  0.416666666666667,  0.416666666666667 ]
    mass: 12.010700
    reduced_to: 28
  - symbol: C  # 41
    coordinates: [  0.416666666666667,  0.416666666666667,  0.416666666666667 ]
    mass: 12.010700
    reduced_to: 28
  - symbol: C  # 42
    coordinates: [  0.750000000000000,  0.416666666666667,  0.416666666666667 ]
    mass: 12.010700
    reduced_to: 28
  - symbol: C  # 43
    coordinates: [  0.083333333333333,  0.750000000000000,  0.416666666666667 ]
    mass: 12.010700
    reduced_to: 28
  - symbol: C  # 44
    coordinates: [  0.416666666666667,  0.750000000000000,  0.416666666666667 ]
    mass: 12.010700
    reduced_to: 28
  - symbol: C  # 45
    coordinates: [  0.750000000000000,  0.750000000000000,  0.416666666666667 ]
    mass: 12.010700
    reduced_to: 28
  - symbol: C  # 46
    coordinates: [  0.083333333333333,  0.083333333333333,  0.750000000000000 ]
    mass: 12.010700
    reduced_to: 28
  - symbol: C  # 47
    coordinates: [  0.416666666666667,  0.083333333333333,  0.750000000000000 ]
    mass: 12.010700
    reduced_to: 28
  - symbol: C  # 48
    coordinates: [  0.750000000000000,  0.083333333333333,  0.750000000000000 ]
    mass: 12.010700
    reduced_to: 28
  - symbol: C  # 49
    coordinates: [  0.083333333333333,  0.416666666666667,  0.750000000000000 ]
    mass: 12.010700
    reduced_to: 28
  - symbol: C  # 50
    coordinates: [  0.416666666666667,  0.416666666666667,  0.750000000000000 ]
    mass: 12.010700
    reduced_to: 28
  - symbol: C  # 51
    coordinates: [  0.750000000000000,  0.416666666666667,  0.750000000000000 ]
    mass: 12.010700
    reduced_to: 28
  - symbol: C  # 52
    coordinates: [  0.083333333333333,  0.750000000000000,  0.750000000000000 ]
    mass: 12.010700
    reduced_to: 28
  - symbol: C  # 53
    coordinates: [  0.416666666666667,  0.750000000000000,  0.750000000000000 ]
    mass: 12.010700
    reduced_to: 28
  - symbol: C  # 54
    coordinates: [  0.750000000000000,  0.750000000000000,  0.750000000000000 ]
    mass: 12.010700
    reduced_to: 28
