phonopy:
  version: 2.17.1
  frequency_unit_conversion_factor: 15.633302
  symmetry_tolerance: 1.00000e-05
  configuration:
    create_displacements: ".true."
    dim: "3 3 3"

physical_unit:
  atomic_mass: "AMU"
  length: "angstrom"
  force_constants: "eV/angstrom^2"

space_group:
  type: "Im-3m"
  number: 229
  Hall_symbol: "-I 4 2 3"

supercell_matrix:
- [   3,   0,   0 ]
- [   0,   3,   0 ]
- [   0,   0,   3 ]

primitive_cell:
  lattice:
  - [    -1.430500000000000,     1.430500000000000,     1.430500000000000 ] # a
  - [     1.430500000000000,    -1.430500000000000,     1.430500000000000 ] # b
  - [     1.430500000000000,     1.430500000000000,    -1.430500000000000 ] # c
  points:
  - symbol: Fe # 1
    coordinates: [  0.000000000000000,  0.000000000000000,  0.000000000000000 ]
    mass: 55.845000
  reciprocal_lattice: # without 2pi
  - [    -0.000000000000000,     0.349528137015030,     0.349528137015030 ] # a*
  - [     0.349528137015030,     0.000000000000000,     0.349528137015030 ] # b*
  - [     0.349528137015030,     0.349528137015030,     0.000000000000000 ] # c*

unit_cell:
  lattice:
  - [    -1.430500000000000,     1.430500000000000,     1.430500000000000 ] # a
  - [     1.430500000000000,    -1.430500000000000,     1.430500000000000 ] # b
  - [     1.430500000000000,     1.430500000000000,    -1.430500000000000 ] # c
  points:
  - symbol: Fe # 1
    coordinates: [  0.000000000000000,  0.000000000000000,  0.000000000000000 ]
    mass: 55.845000
    reduced_to: 1

supercell:
  lattice:
  - [    -4.291500000000000,     4.291500000000000,     4.291500000000000 ] # a
  - [     4.291500000000000,    -4.291500000000000,     4.291500000000000 ] # b
  - [     4.291500000000000,     4.291500000000000,    -4.291500000000000 ] # c
  points:
  - symbol: Fe # 1
    coordinates: [  0.000000000000000,  0.000000000000000,  0.000000000000000 ]
    mass: 55.845000
    reduced_to: 1
  - symbol: Fe # 2
    coordinates: [  0.333333333333333,  0.000000000000000,  0.000000000000000 ]
    mass: 55.845000
    reduced_to: 1
  - symbol: Fe # 3
    coordinates: [  0.666666666666667,  0.000000000000000,  0.000000000000000 ]
    mass: 55.845000
    reduced_to: 1
  - symbol: Fe # 4
    coordinates: [  0.000000000000000,  0.333333333333333,  0.000000000000000 ]
    mass: 55.845000
    reduced_to: 1
  - symbol: Fe # 5
    coordinates: [  0.333333333333333,  0.333333333333333,  0.000000000000000 ]
    mass: 55.845000
    reduced_to: 1
  - symbol: Fe # 6
    coordinates: [  0.666666666666667,  0.333333333333333,  0.000000000000000 ]
    mass: 55.845000
    reduced_to: 1
  - symbol: Fe # 7
    coordinates: [  0.000000000000000,  0.666666666666667,  0.000000000000000 ]
    mass: 55.845000
    reduced_to: 1
  - symbol: Fe # 8
    coordinates: [  0.333333333333333,  0.666666666666667,  0.000000000000000 ]
    mass: 55.845000
    reduced_to: 1
  - symbol: Fe # 9
    coordinates: [  0.666666666666667,  0.666666666666667,  0.000000000000000 ]
    mass: 55.845000
    reduced_to: 1
  - symbol: Fe # 10
    coordinates: [  0.000000000000000,  0.000000000000000,  0.333333333333333 ]
    mass: 55.845000
    reduced_to: 1
  - symbol: Fe # 11
    coordinates: [  0.333333333333333,  0.000000000000000,  0.333333333333333 ]
    mass: 55.845000
    reduced_to: 1
  - symbol: Fe # 12
    coordinates: [  0.666666666666667,  0.000000000000000,  0.333333333333333 ]
    mass: 55.845000
    reduced_to: 1
  - symbol: Fe # 13
    coordinates: [  0.000000000000000,  0.333333333333333,  0.333333333333333 ]
    mass: 55.845000
    reduced_to: 1
  - symbol: Fe # 14
    coordinates: [  0.333333333333333,  0.333333333333333,  0.333333333333333 ]
    mass: 55.845000
    reduced_to: 1
  - symbol: Fe # 15
    coordinates: [  0.666666666666667,  0.333333333333333,  0.333333333333333 ]
    mass: 55.845000
    reduced_to: 1
  - symbol: Fe # 16
    coordinates: [  0.000000000000000,  0.666666666666667,  0.333333333333333 ]
    mass: 55.845000
    reduced_to: 1
  - symbol: Fe # 17
    coordinates: [  0.333333333333333,  0.666666666666667,  0.333333333333333 ]
    mass: 55.845000
    reduced_to: 1
  - symbol: Fe # 18
    coordinates: [  0.666666666666667,  0.666666666666667,  0.333333333333333 ]
    mass: 55.845000
    reduced_to: 1
  - symbol: Fe # 19
    coordinates: [  0.000000000000000,  0.000000000000000,  0.666666666666667 ]
    mass: 55.845000
    reduced_to: 1
  - symbol: Fe # 20
    coordinates: [  0.333333333333333,  0.000000000000000,  0.666666666666667 ]
    mass: 55.845000
    reduced_to: 1
  - symbol: Fe # 21
    coordinates: [  0.666666666666667,  0.000000000000000,  0.666666666666667 ]
    mass: 55.845000
    reduced_to: 1
  - symbol: Fe # 22
    coordinates: [  0.000000000000000,  0.333333333333333,  0.666666666666667 ]
    mass: 55.845000
    reduced_to: 1
  - symbol: Fe # 23
    coordinates: [  0.333333333333333,  0.333333333333333,  0.666666666666667 ]
    mass: 55.845000
    reduced_to: 1
  - symbol: Fe # 24
    coordinates: [  0.666666666666667,  0.333333333333333,  0.666666666666667 ]
    mass: 55.845000
    reduced_to: 1
  - symbol: Fe # 25
    coordinates: [  0.000000000000000,  0.666666666666667,  0.666666666666667 ]
    mass: 55.845000
    reduced_to: 1
  - symbol: Fe # 26
    coordinates: [  0.333333333333333,  0.666666666666667,  0.666666666666667 ]
    mass: 55.845000
    reduced_to: 1
  - symbol: Fe # 27
    coordinates: [  0.666666666666667,  0.666666666666667,  0.666666666666667 ]
    mass: 55.845000
    reduced_to: 1

displacements:
- atom:    1
  displacement:
    [  -0.0057735026918963,  0.0057735026918963,  0.0057735026918963 ]
