nqpoint: 204    
npath: 4      
segment_nqpoint:
- 51
- 51
- 51
- 51
reciprocal_lattice:
- [   0.24962556,   0.00000000,   0.00000000 ] # a*
- [   0.00000000,   0.24962556,   0.00000000 ] # b*
- [   0.00000000,   0.00000000,   0.24962556 ] # c*
natom: 5      
lattice:
- [     4.006000000000000,     0.000000000000000,     0.000000000000000 ] # a
- [     0.000000000000000,     4.006000000000000,     0.000000000000000 ] # b
- [     0.000000000000000,     0.000000000000000,     4.006000000000000 ] # c
points:
- symbol: Ba # 1
  coordinates: [  0.000000000000000,  0.000000000000000,  0.000000000000000 ]
  mass: 137.327000
- symbol: O  # 2
  coordinates: [  0.500000000000000,  0.500000000000000,  0.000000000000000 ]
  mass: 15.999400
- symbol: O  # 3
  coordinates: [  0.500000000000000,  0.000000000000000,  0.500000000000000 ]
  mass: 15.999400
- symbol: O  # 4
  coordinates: [  0.000000000000000,  0.500000000000000,  0.500000000000000 ]
  mass: 15.999400
- symbol: Ti # 5
  coordinates: [  0.500000000000000,  0.500000000000000,  0.500000000000000 ]
  mass: 47.867000

phonon:
- q-position: [    0.0000000,    0.0000000,    0.0000000 ]
  distance:    0.0000000
  band:
  - # 1
    frequency:   -6.2807091497
  - # 2
    frequency:   -6.2807091497
  - # 3
    frequency:   -6.2807091497
  - # 4
    frequency:    0.0027035851
  - # 5
    frequency:    0.0027035851
  - # 6
    frequency:    0.0027035851
  - # 7
    frequency:    5.3161390616
  - # 8
    frequency:    5.3161390616
  - # 9
    frequency:    5.3161390616
  - # 10
    frequency:    8.6364143835
  - # 11
    frequency:    8.6364143835
  - # 12
    frequency:    8.6364143835
  - # 13
    frequency:   13.8993805421
  - # 14
    frequency:   13.8993805421
  - # 15
    frequency:   13.8993805421

- q-position: [    0.0100000,    0.0000000,    0.0000000 ]
  distance:    0.0024963
  band:
  - # 1
    frequency:   -6.2793757417
  - # 2
    frequency:   -6.2793757417
  - # 3
    frequency:   -6.2334153194
  - # 4
    frequency:    0.1125520005
  - # 5
    frequency:    0.1125520005
  - # 6
    frequency:    0.1604355796
  - # 7
    frequency:    5.3164769864
  - # 8
    frequency:    5.3164769864
  - # 9
    frequency:    5.3191827619
  - # 10
    frequency:    8.6375598908
  - # 11
    frequency:    8.6375598908
  - # 12
    frequency:    8.6377245823
  - # 13
    frequency:   13.8986632652
  - # 14
    frequency:   13.8986632652
  - # 15
    frequency:   13.8994017952

- q-position: [    0.0200000,    0.0000000,    0.0000000 ]
  distance:    0.0049925
  band:
  - # 1
    frequency:   -6.2753847720
  - # 2
    frequency:   -6.2753847720
  - # 3
    frequency:   -6.0898373072
  - # 4
    frequency:    0.2249691001
  - # 5
    frequency:    0.2249691001
  - # 6
    frequency:    0.3208473338
  - # 7
    frequency:    5.3174926240
  - # 8
    frequency:    5.3174926240
  - # 9
    frequency:    5.3284901744
  - # 10
    frequency:    8.6409944168
  - # 11
    frequency:    8.6409944168
  - # 12
    frequency:    8.6416488188
  - # 13
    frequency:   13.8965128021
  - # 14
    frequency:   13.8965128021
  - # 15
    frequency:   13.8995234856

- q-position: [    0.0300000,    0.0000000,    0.0000000 ]
  distance:    0.0074888
  band:
  - # 1
    frequency:   -6.2687639157
  - # 2
    frequency:   -6.2687639157
  - # 3
    frequency:   -5.8445030172
  - # 4
    frequency:    0.3372231980
  - # 5
    frequency:    0.3372231980
  - # 6
    frequency:    0.4813004976
  - # 7
    frequency:    5.3191915490
  - # 8
    frequency:    5.3191915490
  - # 9
    frequency:    5.3446253723
  - # 10
    frequency:    8.6467119678
  - # 11
    frequency:    8.6467119678
  - # 12
    frequency:    8.6481680626
  - # 13
    frequency:   13.8929332559
  - # 14
    frequency:   13.8929332559
  - # 15
    frequency:   13.8999200352

- q-position: [    0.0400000,    0.0000000,    0.0000000 ]
  distance:    0.0099850
  band:
  - # 1
    frequency:   -6.2595590017
  - # 2
    frequency:   -6.2595590017
  - # 3
    frequency:   -5.4868004774
  - # 4
    frequency:    0.4492157098
  - # 5
    frequency:    0.4492157098
  - # 6
    frequency:    0.6418527150
  - # 7
    frequency:    5.3215830008
  - # 8
    frequency:    5.3215830008
  - # 9
    frequency:    5.3686610298
  - # 10
    frequency:    8.6547025334
  - # 11
    frequency:    8.6547025334
  - # 12
    frequency:    8.6572507595
  - # 13
    frequency:   13.8879314625
  - # 14
    frequency:   13.8879314625
  - # 15
    frequency:   13.9008843582

- q-position: [    0.0500000,    0.0000000,    0.0000000 ]
  distance:    0.0124813
  band:
  - # 1
    frequency:   -6.2478335675
  - # 2
    frequency:   -6.2478335675
  - # 3
    frequency:   -4.9977228888
  - # 4
    frequency:    0.5608503494
  - # 5
    frequency:    0.5608503494
  - # 6
    frequency:    0.8026790208
  - # 7
    frequency:    5.3246798028
  - # 8
    frequency:    5.3246798028
  - # 9
    frequency:    5.4024421386
  - # 10
    frequency:    8.6649520544
  - # 11
    frequency:    8.6649520544
  - # 12
    frequency:    8.6688530737
  - # 13
    frequency:   13.8815169874
  - # 14
    frequency:   13.8815169874
  - # 15
    frequency:   13.9028316010

- q-position: [    0.0600000,    0.0000000,    0.0000000 ]
  distance:    0.0149775
  band:
  - # 1
    frequency:   -6.2336682345
  - # 2
    frequency:   -6.2336682345
  - # 3
    frequency:   -4.3417356958
  - # 4
    frequency:    0.6720264483
  - # 5
    frequency:    0.6720264483
  - # 6
    frequency:    0.9643087742
  - # 7
    frequency:    5.3284982408
  - # 8
    frequency:    5.3284982408
  - # 9
    frequency:    5.4491350866
  - # 10
    frequency:    8.6774423776
  - # 11
    frequency:    8.6774423776
  - # 12
    frequency:    8.6829192207
  - # 13
    frequency:   13.8737021227
  - # 14
    frequency:   13.8737021227
  - # 15
    frequency:   13.9063052744

- q-position: [    0.0700000,    0.0000000,    0.0000000 ]
  distance:    0.0174738
  band:
  - # 1
    frequency:   -6.2171599025
  - # 2
    frequency:   -6.2171599025
  - # 3
    frequency:   -3.4414081469
  - # 4
    frequency:    0.7826370254
  - # 5
    frequency:    0.7826370254
  - # 6
    frequency:    1.1286998307
  - # 7
    frequency:    5.3330578939
  - # 8
    frequency:    5.3330578939
  - # 9
    frequency:    5.5144111880
  - # 10
    frequency:    8.6921511947
  - # 11
    frequency:    8.6921511947
  - # 12
    frequency:    8.6993818866
  - # 13
    frequency:   13.8645018832
  - # 14
    frequency:   13.8645018832
  - # 15
    frequency:   13.9119868040

- q-position: [    0.0800000,    0.0000000,    0.0000000 ]
  distance:    0.0199700
  band:
  - # 1
    frequency:   -6.1984207658
  - # 2
    frequency:   -6.1984207658
  - # 3
    frequency:   -2.0434797383
  - # 4
    frequency:    0.8925675842
  - # 5
    frequency:    0.8925675842
  - # 6
    frequency:    1.3085828090
  - # 7
    frequency:    5.3383814072
  - # 8
    frequency:    5.3383814072
  - # 9
    frequency:    5.6091385542
  - # 10
    frequency:    8.7090519656
  - # 11
    frequency:    8.7090519656
  - # 12
    frequency:    8.7181627264
  - # 13
    frequency:   13.8539340046
  - # 14
    frequency:   13.8539340046
  - # 15
    frequency:   13.9207100216

- q-position: [    0.0900000,    0.0000000,    0.0000000 ]
  distance:    0.0224663
  band:
  - # 1
    frequency:   -6.1775771517
  - # 2
    frequency:   -6.1775771517
  - # 3
    frequency:    1.0016952244
  - # 4
    frequency:    1.0016952244
  - # 5
    frequency:    1.3182436685
  - # 6
    frequency:    2.0786855426
  - # 7
    frequency:    5.3444941954
  - # 8
    frequency:    5.3444941954
  - # 9
    frequency:    5.7556126449
  - # 10
    frequency:    8.7281138240
  - # 11
    frequency:    8.7281138240
  - # 12
    frequency:    8.7391729333
  - # 13
    frequency:   13.8420189441
  - # 14
    frequency:   13.8420189441
  - # 15
    frequency:   13.9334827935

- q-position: [    0.1000000,    0.0000000,    0.0000000 ]
  distance:    0.0249626
  band:
  - # 1
    frequency:   -6.1547681907
  - # 2
    frequency:   -6.1547681907
  - # 3
    frequency:    1.1098880161
  - # 4
    frequency:    1.1098880161
  - # 5
    frequency:    1.5556424114
  - # 6
    frequency:    3.4513583035
  - # 7
    frequency:    5.3514240643
  - # 8
    frequency:    5.3514240643
  - # 9
    frequency:    5.9993340317
  - # 10
    frequency:    8.7493014632
  - # 11
    frequency:    8.7493014632
  - # 12
    frequency:    8.7623138720
  - # 13
    frequency:   13.8287798850
  - # 14
    frequency:   13.8287798850
  - # 15
    frequency:   13.9515189079

- q-position: [    0.1100000,    0.0000000,    0.0000000 ]
  distance:    0.0274588
  band:
  - # 1
    frequency:   -6.1301443264
  - # 2
    frequency:   -6.1301443264
  - # 3
    frequency:    1.2170046525
  - # 4
    frequency:    1.2170046525
  - # 5
    frequency:    1.7197368779
  - # 6
    frequency:    4.2784884718
  - # 7
    frequency:    5.3592007354
  - # 8
    frequency:    5.3592007354
  - # 9
    frequency:    6.4080380483
  - # 10
    frequency:    8.7725750011
  - # 11
    frequency:    8.7725750011
  - # 12
    frequency:    8.7874777650
  - # 13
    frequency:   13.8142427465
  - # 14
    frequency:   13.8142427465
  - # 15
    frequency:   13.9762845446

- q-position: [    0.1200000,    0.0000000,    0.0000000 ]
  distance:    0.0299551
  band:
  - # 1
    frequency:   -6.1038656824
  - # 2
    frequency:   -6.1038656824
  - # 3
    frequency:    1.3228944135
  - # 4
    frequency:    1.3228944135
  - # 5
    frequency:    1.8752610057
  - # 6
    frequency:    4.7537365561
  - # 7
    frequency:    5.3678552607
  - # 8
    frequency:    5.3678552607
  - # 9
    frequency:    6.9982895359
  - # 10
    frequency:    8.7978898222
  - # 11
    frequency:    8.7978898222
  - # 12
    frequency:    8.8145484239
  - # 13
    frequency:   13.7984362015
  - # 14
    frequency:   13.7984362015
  - # 15
    frequency:   14.0095650619

- q-position: [    0.1300000,    0.0000000,    0.0000000 ]
  distance:    0.0324513
  band:
  - # 1
    frequency:   -6.0761003082
  - # 2
    frequency:   -6.0761003082
  - # 3
    frequency:    1.4273974747
  - # 4
    frequency:    1.4273974747
  - # 5
    frequency:    2.0264081875
  - # 6
    frequency:    5.0260856574
  - # 7
    frequency:    5.3774193118
  - # 8
    frequency:    5.3774193118
  - # 9
    frequency:    7.6897842154
  - # 10
    frequency:    8.8251963954
  - # 11
    frequency:    8.8251963954
  - # 12
    frequency:    8.8434020157
  - # 13
    frequency:   13.7813917038
  - # 14
    frequency:   13.7813917038
  - # 15
    frequency:   14.0535589776

- q-position: [    0.1400000,    0.0000000,    0.0000000 ]
  distance:    0.0349476
  band:
  - # 1
    frequency:   -6.0470223297
  - # 2
    frequency:   -6.0470223297
  - # 3
    frequency:    1.5303455925
  - # 4
    frequency:    1.5303455925
  - # 5
    frequency:    2.1738405557
  - # 6
    frequency:    5.2047056589
  - # 7
    frequency:    5.3879243330
  - # 8
    frequency:    5.3879243330
  - # 9
    frequency:    8.4025817302
  - # 10
    frequency:    8.8544400656
  - # 11
    frequency:    8.8544400656
  - # 12
    frequency:    8.8739078543
  - # 13
    frequency:   13.7631435269
  - # 14
    frequency:   13.7631435269
  - # 15
    frequency:   14.1110053448

- q-position: [    0.1500000,    0.0000000,    0.0000000 ]
  distance:    0.0374438
  band:
  - # 1
    frequency:   -6.0168100395
  - # 2
    frequency:   -6.0168100395
  - # 3
    frequency:    1.6315631899
  - # 4
    frequency:    1.6315631899
  - # 5
    frequency:    2.3174943732
  - # 6
    frequency:    5.3426738239
  - # 7
    frequency:    5.3994005486
  - # 8
    frequency:    5.3994005486
  - # 9
    frequency:    8.8855608190
  - # 10
    frequency:    8.8855608190
  - # 11
    frequency:    8.9059292087
  - # 12
    frequency:    9.0974736543
  - # 13
    frequency:   13.7437288178
  - # 14
    frequency:   13.7437288178
  - # 15
    frequency:   14.1853440019

- q-position: [    0.1600000,    0.0000000,    0.0000000 ]
  distance:    0.0399401
  band:
  - # 1
    frequency:   -5.9856439628
  - # 2
    frequency:   -5.9856439628
  - # 3
    frequency:    1.7308688542
  - # 4
    frequency:    1.7308688542
  - # 5
    frequency:    2.4570887245
  - # 6
    frequency:    5.4118758199
  - # 7
    frequency:    5.4118758199
  - # 8
    frequency:    5.4634002357
  - # 9
    frequency:    8.9184930213
  - # 10
    frequency:    8.9184930213
  - # 11
    frequency:    8.9393241187
  - # 12
    frequency:    9.7571791732
  - # 13
    frequency:   13.7231876670
  - # 14
    frequency:   13.7231876670
  - # 15
    frequency:   14.2808855365

- q-position: [    0.1700000,    0.0000000,    0.0000000 ]
  distance:    0.0424363
  band:
  - # 1
    frequency:   -5.9537049418
  - # 2
    frequency:   -5.9537049418
  - # 3
    frequency:    1.8280772448
  - # 4
    frequency:    1.8280772448
  - # 5
    frequency:    2.5922827665
  - # 6
    frequency:    5.4253743560
  - # 7
    frequency:    5.4253743560
  - # 8
    frequency:    5.5778048256
  - # 9
    frequency:    8.9531651291
  - # 10
    frequency:    8.9531651291
  - # 11
    frequency:    8.9739462105
  - # 12
    frequency:   10.3722248547
  - # 13
    frequency:   13.7015631988
  - # 14
    frequency:   13.7015631988
  - # 15
    frequency:   14.4029106851

- q-position: [    0.1800000,    0.0000000,    0.0000000 ]
  distance:    0.0449326
  band:
  - # 1
    frequency:   -5.9211722804
  - # 2
    frequency:   -5.9211722804
  - # 3
    frequency:    1.9230013888
  - # 4
    frequency:    1.9230013888
  - # 5
    frequency:    2.7227472359
  - # 6
    frequency:    5.4399152890
  - # 7
    frequency:    5.4399152890
  - # 8
    frequency:    5.6913672373
  - # 9
    frequency:    8.9894993750
  - # 10
    frequency:    8.9894993750
  - # 11
    frequency:    9.0096455042
  - # 12
    frequency:   10.9355350053
  - # 13
    frequency:   13.6789016846
  - # 14
    frequency:   13.6789016846
  - # 15
    frequency:   14.5575078157

- q-position: [    0.1900000,    0.0000000,    0.0000000 ]
  distance:    0.0474289
  band:
  - # 1
    frequency:   -5.8882219924
  - # 2
    frequency:   -5.8882219924
  - # 3
    frequency:    2.0154553238
  - # 4
    frequency:    2.0154553238
  - # 5
    frequency:    2.8482064359
  - # 6
    frequency:    5.4555111381
  - # 7
    frequency:    5.4555111381
  - # 8
    frequency:    5.8069349625
  - # 9
    frequency:    9.0274114304
  - # 10
    frequency:    9.0274114304
  - # 11
    frequency:    9.0462692079
  - # 12
    frequency:   11.4411371786
  - # 13
    frequency:   13.6552526807
  - # 14
    frequency:   13.6552526807
  - # 15
    frequency:   14.7508237072

- q-position: [    0.2000000,    0.0000000,    0.0000000 ]
  distance:    0.0499251
  band:
  - # 1
    frequency:   -5.8550251929
  - # 2
    frequency:   -5.8550251929
  - # 3
    frequency:    2.1052570213
  - # 4
    frequency:    2.1052570213
  - # 5
    frequency:    2.9684646501
  - # 6
    frequency:    5.4721661977
  - # 7
    frequency:    5.4721661977
  - # 8
    frequency:    5.9259197253
  - # 9
    frequency:    9.0668100457
  - # 10
    frequency:    9.0668100457
  - # 11
    frequency:    9.0836624911
  - # 12
    frequency:   11.8850063371
  - # 13
    frequency:   13.6306691962
  - # 14
    frequency:   13.6306691962
  - # 15
    frequency:   14.9874509794

- q-position: [    0.2100000,    0.0000000,    0.0000000 ]
  distance:    0.0524214
  band:
  - # 1
    frequency:   -5.8217466680
  - # 2
    frequency:   -5.8217466680
  - # 3
    frequency:    2.1922315051
  - # 4
    frequency:    2.1922315051
  - # 5
    frequency:    3.0834202488
  - # 6
    frequency:    5.4898748983
  - # 7
    frequency:    5.4898748983
  - # 8
    frequency:    6.0488554835
  - # 9
    frequency:    9.1075966750
  - # 10
    frequency:    9.1075966750
  - # 11
    frequency:    9.1216692338
  - # 12
    frequency:   12.2669267277
  - # 13
    frequency:   13.6052078918
  - # 14
    frequency:   13.6052078918
  - # 15
    frequency:   15.2682668795

- q-position: [    0.2200000,    0.0000000,    0.0000000 ]
  distance:    0.0549176
  band:
  - # 1
    frequency:   -5.7885436508
  - # 2
    frequency:   -5.7885436508
  - # 3
    frequency:    2.2762140561
  - # 4
    frequency:    2.2762140561
  - # 5
    frequency:    3.1930683842
  - # 6
    frequency:    5.5086202061
  - # 7
    frequency:    5.5086202061
  - # 8
    frequency:    6.1756884671
  - # 9
    frequency:    9.1496650884
  - # 10
    frequency:    9.1496650884
  - # 11
    frequency:    9.1601327472
  - # 12
    frequency:   12.5917902834
  - # 13
    frequency:   13.5789293123
  - # 14
    frequency:   13.5789293123
  - # 15
    frequency:   15.5890151361

- q-position: [    0.2300000,    0.0000000,    0.0000000 ]
  distance:    0.0574139
  band:
  - # 1
    frequency:   -5.7555648240
  - # 2
    frequency:   -5.7555648240
  - # 3
    frequency:    2.3570533773
  - # 4
    frequency:    2.3570533773
  - # 5
    frequency:    3.2974934838
  - # 6
    frequency:    5.5283721321
  - # 7
    frequency:    5.5283721321
  - # 8
    frequency:    6.3059495498
  - # 9
    frequency:    9.1929009786
  - # 10
    frequency:    9.1929009786
  - # 11
    frequency:    9.1988964619
  - # 12
    frequency:   12.8689104771
  - # 13
    frequency:   13.5518981567
  - # 14
    frequency:   13.5518981567
  - # 15
    frequency:   15.9409427793

- q-position: [    0.2400000,    0.0000000,    0.0000000 ]
  distance:    0.0599101
  band:
  - # 1
    frequency:   -5.7229495589
  - # 2
    frequency:   -5.7229495589
  - # 3
    frequency:    2.4346145850
  - # 4
    frequency:    2.4346145850
  - # 5
    frequency:    3.3968537763
  - # 6
    frequency:    5.5490864372
  - # 7
    frequency:    5.5490864372
  - # 8
    frequency:    6.4388730909
  - # 9
    frequency:    9.2371815688
  - # 10
    frequency:    9.2371815688
  - # 11
    frequency:    9.2378045828
  - # 12
    frequency:   13.1096294074
  - # 13
    frequency:   13.5241835859
  - # 14
    frequency:   13.5241835859
  - # 15
    frequency:   16.3131709270

- q-position: [    0.2500000,    0.0000000,    0.0000000 ]
  distance:    0.0624064
  band:
  - # 1
    frequency:   -5.6908273939
  - # 2
    frequency:   -5.6908273939
  - # 3
    frequency:    2.5087818849
  - # 4
    frequency:    2.5087818849
  - # 5
    frequency:    3.4913609000
  - # 6
    frequency:    5.5707036161
  - # 7
    frequency:    5.5707036161
  - # 8
    frequency:    6.5734899846
  - # 9
    frequency:    9.2767027075
  - # 10
    frequency:    9.2823752286
  - # 11
    frequency:    9.2823752286
  - # 12
    frequency:   13.3248581838
  - # 13
    frequency:   13.4958595689
  - # 14
    frequency:   13.4958595689
  - # 15
    frequency:   16.6951419112

- q-position: [    0.2600000,    0.0000000,    0.0000000 ]
  distance:    0.0649026
  band:
  - # 1
    frequency:   -5.6593177423
  - # 2
    frequency:   -5.6593177423
  - # 3
    frequency:    2.5794608031
  - # 4
    frequency:    2.5794608031
  - # 5
    frequency:    3.5812578362
  - # 6
    frequency:    5.5931482437
  - # 7
    frequency:    5.5931482437
  - # 8
    frequency:    6.7087063779
  - # 9
    frequency:    9.3154384082
  - # 10
    frequency:    9.3283411091
  - # 11
    frequency:    9.3283411091
  - # 12
    frequency:   13.4670052688
  - # 13
    frequency:   13.4670052688
  - # 14
    frequency:   13.5236860781
  - # 15
    frequency:   17.0780003479

- q-position: [    0.2700000,    0.0000000,    0.0000000 ]
  distance:    0.0673989
  band:
  - # 1
    frequency:   -5.6285298163
  - # 2
    frequency:   -5.6285298163
  - # 3
    frequency:    2.6465798559
  - # 4
    frequency:    2.6465798559
  - # 5
    frequency:    3.6667979852
  - # 6
    frequency:    5.6163287513
  - # 7
    frequency:    5.6163287513
  - # 8
    frequency:    6.8433721367
  - # 9
    frequency:    9.3538617763
  - # 10
    frequency:    9.3749288036
  - # 11
    frequency:    9.3749288036
  - # 12
    frequency:   13.4377054644
  - # 13
    frequency:   13.4377054644
  - # 14
    frequency:   13.7130420818
  - # 15
    frequency:   17.4549222789

- q-position: [    0.2800000,    0.0000000,    0.0000000 ]
  distance:    0.0698952
  band:
  - # 1
    frequency:   -5.5985627426
  - # 2
    frequency:   -5.5985627426
  - # 3
    frequency:    2.7100915695
  - # 4
    frequency:    2.7100915695
  - # 5
    frequency:    3.7482273658
  - # 6
    frequency:    5.6401376824
  - # 7
    frequency:    5.6401376824
  - # 8
    frequency:    6.9763399390
  - # 9
    frequency:    9.3918259301
  - # 10
    frequency:    9.4219780473
  - # 11
    frequency:    9.4219780473
  - # 12
    frequency:   13.4080510043
  - # 13
    frequency:   13.4080510043
  - # 14
    frequency:   13.8979127293
  - # 15
    frequency:   17.8208884841

- q-position: [    0.2900000,    0.0000000,    0.0000000 ]
  distance:    0.0723914
  band:
  - # 1
    frequency:   -5.5695058460
  - # 2
    frequency:   -5.5695058460
  - # 3
    frequency:    2.7699727985
  - # 4
    frequency:    2.7699727985
  - # 5
    frequency:    3.8257709756
  - # 6
    frequency:    5.6644524524
  - # 7
    frequency:    5.6644524524
  - # 8
    frequency:    7.1065146872
  - # 9
    frequency:    9.4291874855
  - # 10
    frequency:    9.4693184664
  - # 11
    frequency:    9.4693184664
  - # 12
    frequency:   13.3781392859
  - # 13
    frequency:   13.3781392859
  - # 14
    frequency:   14.0817206347
  - # 15
    frequency:   18.1722984952

- q-position: [    0.3000000,    0.0000000,    0.0000000 ]
  distance:    0.0748877
  band:
  - # 1
    frequency:   -5.5414390675
  - # 2
    frequency:   -5.5414390675
  - # 3
    frequency:    2.8262243275
  - # 4
    frequency:    2.8262243275
  - # 5
    frequency:    3.8996235327
  - # 6
    frequency:    5.6891366027
  - # 7
    frequency:    5.6891366027
  - # 8
    frequency:    7.2328926944
  - # 9
    frequency:    9.4658069912
  - # 10
    frequency:    9.5167693913
  - # 11
    frequency:    9.5167693913
  - # 12
    frequency:   13.3480747479
  - # 13
    frequency:   13.3480747479
  - # 14
    frequency:   14.2666794988
  - # 15
    frequency:   18.5066109085

- q-position: [    0.3100000,    0.0000000,    0.0000000 ]
  distance:    0.0773839
  band:
  - # 1
    frequency:   -5.5144334901
  - # 2
    frequency:   -5.5144334901
  - # 3
    frequency:    2.8788697837
  - # 4
    frequency:    2.8788697837
  - # 5
    frequency:    3.9699442363
  - # 6
    frequency:    5.7140415102
  - # 7
    frequency:    5.7140415102
  - # 8
    frequency:    7.3545903142
  - # 9
    frequency:    9.5015493297
  - # 10
    frequency:    9.5641397502
  - # 11
    frequency:    9.5641397502
  - # 12
    frequency:   13.3179693609
  - # 13
    frequency:   13.3179693609
  - # 14
    frequency:   14.4540734048
  - # 15
    frequency:   18.8220634805

- q-position: [    0.3200000,    0.0000000,    0.0000000 ]
  distance:    0.0798802
  band:
  - # 1
    frequency:   -5.4885519395
  - # 2
    frequency:   -5.4885519395
  - # 3
    frequency:    2.9279539288
  - # 4
    frequency:    2.9279539288
  - # 5
    frequency:    4.0368548693
  - # 6
    frequency:    5.7390084844
  - # 7
    frequency:    5.7390084844
  - # 8
    frequency:    7.4708621065
  - # 9
    frequency:    9.5362840843
  - # 10
    frequency:    9.6112280625
  - # 11
    frequency:    9.6112280625
  - # 12
    frequency:   13.2879430940
  - # 13
    frequency:   13.2879430940
  - # 14
    frequency:   14.6444627810
  - # 15
    frequency:   19.1174715884

- q-position: [    0.3300000,    0.0000000,    0.0000000 ]
  distance:    0.0823764
  band:
  - # 1
    frequency:   -5.4638496328
  - # 2
    frequency:   -5.4638496328
  - # 3
    frequency:    2.9735404245
  - # 4
    frequency:    2.9735404245
  - # 5
    frequency:    4.1004404527
  - # 6
    frequency:    5.7638711595
  - # 7
    frequency:    5.7638711595
  - # 8
    frequency:    7.5811091340
  - # 9
    frequency:    9.5698858749
  - # 10
    frequency:    9.6578225582
  - # 11
    frequency:    9.6578225582
  - # 12
    frequency:   13.2581243286
  - # 13
    frequency:   13.2581243286
  - # 14
    frequency:   14.8378342041
  - # 15
    frequency:   19.3920882938

- q-position: [    0.3400000,    0.0000000,    0.0000000 ]
  distance:    0.0848727
  band:
  - # 1
    frequency:   -5.4403748505
  - # 2
    frequency:   -5.4403748505
  - # 3
    frequency:    3.0157091942
  - # 4
    frequency:    3.0157091942
  - # 5
    frequency:    4.1607516945
  - # 6
    frequency:    5.7884580750
  - # 7
    frequency:    5.7884580750
  - # 8
    frequency:    7.6848784848
  - # 9
    frequency:    9.6022346643
  - # 10
    frequency:    9.7037014518
  - # 11
    frequency:    9.7037014518
  - # 12
    frequency:   13.2286501821
  - # 13
    frequency:   13.2286501821
  - # 14
    frequency:   15.0337110261
  - # 15
    frequency:   19.6455088420

- q-position: [    0.3500000,    0.0000000,    0.0000000 ]
  distance:    0.0873689
  band:
  - # 1
    frequency:   -5.4181696082
  - # 2
    frequency:   -5.4181696082
  - # 3
    frequency:    3.0545535114
  - # 4
    frequency:    3.0545535114
  - # 5
    frequency:    4.2178085846
  - # 6
    frequency:    5.8125953326
  - # 7
    frequency:    5.8125953326
  - # 8
    frequency:    7.7818555297
  - # 9
    frequency:    9.6332160350
  - # 10
    frequency:    9.7486334112
  - # 11
    frequency:    9.7486334112
  - # 12
    frequency:   13.1996666954
  - # 13
    frequency:   13.1996666954
  - # 14
    frequency:   15.2312376448
  - # 15
    frequency:   19.8776060202

- q-position: [    0.3600000,    0.0000000,    0.0000000 ]
  distance:    0.0898652
  band:
  - # 1
    frequency:   -5.3972703119
  - # 2
    frequency:   -5.3972703119
  - # 3
    frequency:    3.0901769449
  - # 4
    frequency:    3.0901769449
  - # 5
    frequency:    4.2716046224
  - # 6
    frequency:    5.8361092219
  - # 7
    frequency:    5.8361092219
  - # 8
    frequency:    7.8718506849
  - # 9
    frequency:    9.6627214407
  - # 10
    frequency:    9.7923782641
  - # 11
    frequency:    9.7923782641
  - # 12
    frequency:   13.1713288285
  - # 13
    frequency:   13.1713288285
  - # 14
    frequency:   15.4292460734
  - # 15
    frequency:   20.0884865569

- q-position: [    0.3700000,    0.0000000,    0.0000000 ]
  distance:    0.0923615
  band:
  - # 1
    frequency:   -5.3777083828
  - # 2
    frequency:   -5.3777083828
  - # 3
    frequency:    3.1226902856
  - # 4
    frequency:    3.1226902856
  - # 5
    frequency:    4.3221112950
  - # 6
    frequency:    5.8588287203
  - # 7
    frequency:    5.8588287203
  - # 8
    frequency:    7.9547825293
  - # 9
    frequency:    9.6906484322
  - # 10
    frequency:    9.8346879987
  - # 11
    frequency:    9.8346879987
  - # 12
    frequency:   13.1438001975
  - # 13
    frequency:   13.1438001975
  - # 14
    frequency:   15.6263103476
  - # 15
    frequency:   20.2784616408

- q-position: [    0.3800000,    0.0000000,    0.0000000 ]
  distance:    0.0948577
  band:
  - # 1
    frequency:   -5.3595108396
  - # 2
    frequency:   -5.3595108396
  - # 3
    frequency:    3.1522085581
  - # 4
    frequency:    3.1522085581
  - # 5
    frequency:    4.3692825445
  - # 6
    frequency:    5.8805877888
  - # 7
    frequency:    5.8805877888
  - # 8
    frequency:    8.0306590179
  - # 9
    frequency:    9.7169008603
  - # 10
    frequency:    9.8753081173
  - # 11
    frequency:    9.8753081173
  - # 12
    frequency:   13.1172524818
  - # 13
    frequency:   13.1172524818
  - # 14
    frequency:   15.8207923257
  - # 15
    frequency:   20.4480266129

- q-position: [    0.3900000,    0.0000000,    0.0000000 ]
  distance:    0.0973540
  band:
  - # 1
    frequency:   -5.3427008334
  - # 2
    frequency:   -5.3427008334
  - # 3
    frequency:    3.1788482021
  - # 4
    frequency:    3.1788482021
  - # 5
    frequency:    4.4130590502
  - # 6
    frequency:    5.9012274114
  - # 7
    frequency:    5.9012274114
  - # 8
    frequency:    8.0995582900
  - # 9
    frequency:    9.7413890579
  - # 10
    frequency:    9.9139794089
  - # 11
    frequency:    9.9139794089
  - # 12
    frequency:   13.0918644202
  - # 13
    frequency:   13.0918644202
  - # 14
    frequency:   16.0108813697
  - # 15
    frequency:   20.5978461103

- q-position: [    0.4000000,    0.0000000,    0.0000000 ]
  distance:    0.0998502
  band:
  - # 1
    frequency:   -5.3272981303
  - # 2
    frequency:   -5.3272981303
  - # 3
    frequency:    3.2027244850
  - # 4
    frequency:    3.2027244850
  - # 5
    frequency:    4.4533722229
  - # 6
    frequency:    5.9205973443
  - # 7
    frequency:    5.9205973443
  - # 8
    frequency:    8.1616102306
  - # 9
    frequency:    9.7640300007
  - # 10
    frequency:    9.9504402047
  - # 11
    frequency:    9.9504402047
  - # 12
    frequency:   13.0678203228
  - # 13
    frequency:   13.0678203228
  - # 14
    frequency:   16.1946299957
  - # 15
    frequency:   20.7287416069

- q-position: [    0.4100000,    0.0000000,    0.0000000 ]
  distance:    0.1023465
  band:
  - # 1
    frequency:   -5.3133195401
  - # 2
    frequency:   -5.3133195401
  - # 3
    frequency:    3.2239491828
  - # 4
    frequency:    3.2239491828
  - # 5
    frequency:    4.4901478567
  - # 6
    frequency:    5.9385575648
  - # 7
    frequency:    5.9385575648
  - # 8
    frequency:    8.2169795903
  - # 9
    frequency:    9.7847474514
  - # 10
    frequency:    9.9844291709
  - # 11
    frequency:    9.9844291709
  - # 12
    frequency:   13.0453080269
  - # 13
    frequency:   13.0453080269
  - # 14
    frequency:   16.3699876211
  - # 15
    frequency:   20.8416785653

- q-position: [    0.4200000,    0.0000000,    0.0000000 ]
  distance:    0.1048427
  band:
  - # 1
    frequency:   -5.3007792914
  - # 2
    frequency:   -5.3007792914
  - # 3