  27   27
1 1
     1.522849000000001    -0.000000000000000    -0.000000000000000
    -0.000000000000000     1.522849000000001    -0.000000000000000
    -0.000000000000000    -0.000000000000000     1.522849000000001
1 2
    -0.381203500000000    -0.000000000000000    -0.000000000000000
     0.000000000000000     0.037871000000000    -0.000000000000000
     0.000000000000000    -0.000000000000000     0.037871000000000
1 3
    -0.381203500000000    -0.000000000000000    -0.000000000000000
    -0.000000000000000     0.037871000000000    -0.000000000000000
    -0.000000000000000    -0.000000000000000     0.037871000000000
1 4
     0.037871000000000    -0.000000000000000    -0.000000000000000
    -0.000000000000000    -0.381203500000000    -0.000000000000000
    -0.000000000000000     0.000000000000000     0.037871000000000
1 5
    -0.119188500000000    -0.398243500000000    -0.000000000000000
    -0.398243500000000    -0.119188500000000    -0.000000000000000
    -0.000000000000000    -0.000000000000000    -0.060521000000000
1 6
    -0.119188500000000     0.398243500000000    -0.000000000000000
     0.398243500000000    -0.119188500000000    -0.000000000000000
    -0.000000000000000    -0.000000000000000    -0.060521000000000
1 7
     0.037871000000000     0.000000000000000    -0.000000000000000
    -0.000000000000000    -0.381203500000000    -0.000000000000000
    -0.000000000000000    -0.000000000000000     0.037871000000000
1 8
    -0.119188500000000     0.398243500000000    -0.000000000000000
     0.398243500000000    -0.119188500000000    -0.000000000000000
    -0.000000000000000    -0.000000000000000    -0.060521000000000
1 9
    -0.119188500000000    -0.398243500000000    -0.000000000000000
    -0.398243500000000    -0.119188500000000    -0.000000000000000
    -0.000000000000000    -0.000000000000000    -0.060521000000000
1 10
     0.037871000000000    -0.000000000000000    -0.000000000000000
    -0.000000000000000     0.037871000000000     0.000000000000000
    -0.000000000000000    -0.000000000000000    -0.381203500000000
1 11
    -0.119188500000000    -0.000000000000000    -0.398243500000000
    -0.000000000000000    -0.060521000000000    -0.000000000000000
    -0.398243500000000    -0.000000000000000    -0.119188500000000
1 12
    -0.119188500000000    -0.000000000000000     0.398243500000000
    -0.000000000000000    -0.060521000000000    -0.000000000000000
     0.398243500000000    -0.000000000000000    -0.119188500000000
1 13
    -0.060521000000000    -0.000000000000000    -0.000000000000000
    -0.000000000000000    -0.119188500000000    -0.398243500000000
    -0.000000000000000    -0.398243500000000    -0.119188500000000
1 14
     0.035458000000000     0.030804500000000     0.030804500000000
     0.030804500000000     0.035458000000000     0.030804500000000
     0.030804500000000     0.030804500000000     0.035458000000000
1 15
     0.035458000000000    -0.030804500000000    -0.030804500000000
    -0.030804500000000     0.035458000000000     0.030804500000000
    -0.030804500000000     0.030804500000000     0.035458000000000
1 16
    -0.060521000000000     0.000000000000000    -0.000000000000000
    -0.000000000000000    -0.119188500000000     0.398243500000000
    -0.000000000000000     0.398243500000000    -0.119188500000000
1 17
     0.035458000000000    -0.030804500000000     0.030804500000000
    -0.030804500000000     0.035458000000000    -0.030804500000000
     0.030804500000000    -0.030804500000000     0.035458000000000
1 18
     0.035458000000000     0.030804500000000    -0.030804500000000
     0.030804500000000     0.035458000000000    -0.030804500000000
    -0.030804500000000    -0.030804500000000     0.035458000000000
1 19
     0.037871000000000    -0.000000000000000     0.000000000000000
    -0.000000000000000     0.037871000000000    -0.000000000000000
    -0.000000000000000    -0.000000000000000    -0.381203500000000
1 20
    -0.119188500000000    -0.000000000000000     0.398243500000000
    -0.000000000000000    -0.060521000000000    -0.000000000000000
     0.398243500000000    -0.000000000000000    -0.119188500000000
1 21
    -0.119188500000000    -0.000000000000000    -0.398243500000000
    -0.000000000000000    -0.060521000000000    -0.000000000000000
    -0.398243500000000    -0.000000000000000    -0.119188500000000
1 22
    -0.060521000000000    -0.000000000000000     0.000000000000000
    -0.000000000000000    -0.119188500000000     0.398243500000000
    -0.000000000000000     0.398243500000000    -0.119188500000000
1 23
     0.035458000000000     0.030804500000000    -0.030804500000000
     0.030804500000000     0.035458000000000    -0.030804500000000
    -0.030804500000000    -0.030804500000000     0.035458000000000
1 24
     0.035458000000000    -0.030804500000000     0.030804500000000
    -0.030804500000000     0.035458000000000    -0.030804500000000
     0.030804500000000    -0.030804500000000     0.035458000000000
1 25
    -0.060521000000000     0.000000000000000     0.000000000000000
    -0.000000000000000    -0.119188500000000    -0.398243500000000
    -0.000000000000000    -0.398243500000000    -0.119188500000000
1 26
     0.035458000000000    -0.030804500000000    -0.030804500000000
    -0.030804500000000     0.035458000000000     0.030804500000000
    -0.030804500000000     0.030804500000000     0.035458000000000
1 27
     0.035458000000000     0.030804500000000     0.030804500000000
     0.030804500000000     0.035458000000000     0.030804500000000
     0.030804500000000     0.030804500000000     0.035458000000000
2 1
    -0.381203500000000     0.000000000000000     0.000000000000000
    -0.000000000000000     0.037871000000000     0.000000000000000
    -0.000000000000000     0.000000000000000     0.037871000000000
2 2
     1.522849000000001     0.000000000000000     0.000000000000000
     0.000000000000000     1.522849000000001     0.000000000000000
     0.000000000000000     0.000000000000000     1.522849000000001
2 3
    -0.381203500000000     0.000000000000000     0.000000000000000
     0.000000000000000     0.037871000000000     0.000000000000000
     0.000000000000000     0.000000000000000     0.037871000000000
2 4
    -0.119188500000000     0.398243500000000     0.000000000000000
     0.398243500000000    -0.119188500000000     0.000000000000000
     0.000000000000000     0.000000000000000    -0.060521000000000
2 5
     0.037871000000000    -0.000000000000000     0.000000000000000
     0.000000000000000    -0.381203500000000     0.000000000000000
     0.000000000000000     0.000000000000000     0.037871000000000
2 6
    -0.119188500000000    -0.398243500000000     0.000000000000000
    -0.398243500000000    -0.119188500000000     0.000000000000000
     0.000000000000000     0.000000000000000    -0.060521000000000
2 7
    -0.119188500000000    -0.398243500000000     0.000000000000000
    -0.398243500000000    -0.119188500000000     0.000000000000000
     0.000000000000000     0.000000000000000    -0.060521000000000
2 8
     0.037871000000000     0.000000000000000     0.000000000000000
     0.000000000000000    -0.381203500000000     0.000000000000000
     0.000000000000000    -0.000000000000000     0.037871000000000
2 9
    -0.119188500000000     0.398243500000000     0.000000000000000
     0.398243500000000    -0.119188500000000     0.000000000000000
     0.000000000000000     0.000000000000000    -0.060521000000000
2 10
    -0.119188500000000     0.000000000000000     0.398243500000000
     0.000000000000000    -0.060521000000000     0.000000000000000
     0.398243500000000     0.000000000000000    -0.119188500000000
2 11
     0.037871000000000     0.000000000000000    -0.000000000000000
     0.000000000000000     0.037871000000000     0.000000000000000
     0.000000000000000     0.000000000000000    -0.381203500000000
2 12
    -0.119188500000000     0.000000000000000    -0.398243500000000
     0.000000000000000    -0.060521000000000     0.000000000000000
    -0.398243500000000     0.000000000000000    -0.119188500000000
2 13
     0.035458000000000    -0.030804500000000    -0.030804500000000
    -0.030804500000000     0.035458000000000     0.030804500000000
    -0.030804500000000     0.030804500000000     0.035458000000000
2 14
    -0.060521000000000    -0.000000000000000    -0.000000000000000
     0.000000000000000    -0.119188500000000    -0.398243500000000
     0.000000000000000    -0.398243500000000    -0.119188500000000
2 15
     0.035458000000000     0.030804500000000     0.030804500000000
     0.030804500000000     0.035458000000000     0.030804500000000
     0.030804500000000     0.030804500000000     0.035458000000000
2 16
     0.035458000000000     0.030804500000000    -0.030804500000000
     0.030804500000000     0.035458000000000    -0.030804500000000
    -0.030804500000000    -0.030804500000000     0.035458000000000
2 17
    -0.060521000000000     0.000000000000000    -0.000000000000000
     0.000000000000000    -0.119188500000000     0.398243500000000
     0.000000000000000     0.398243500000000    -0.119188500000000
2 18
     0.035458000000000    -0.030804500000000     0.030804500000000
    -0.030804500000000     0.035458000000000    -0.030804500000000
     0.030804500000000    -0.030804500000000     0.035458000000000
2 19
    -0.119188500000000     0.000000000000000    -0.398243500000000
     0.000000000000000    -0.060521000000000     0.000000000000000
    -0.398243500000000     0.000000000000000    -0.119188500000000
2 20
     0.037871000000000     0.000000000000000     0.000000000000000
     0.000000000000000     0.037871000000000    -0.000000000000000
     0.000000000000000     0.000000000000000    -0.381203500000000
2 21
    -0.119188500000000     0.000000000000000     0.398243500000000
     0.000000000000000    -0.060521000000000     0.000000000000000
     0.398243500000000     0.000000000000000    -0.119188500000000
2 22
     0.035458000000000    -0.030804500000000     0.030804500000000
    -0.030804500000000     0.035458000000000    -0.030804500000000
     0.030804500000000    -0.030804500000000     0.035458000000000
2 23
    -0.060521000000000    -0.000000000000000     0.000000000000000
     0.000000000000000    -0.119188500000000     0.398243500000000
     0.000000000000000     0.398243500000000    -0.119188500000000
2 24
     0.035458000000000     0.030804500000000    -0.030804500000000
     0.030804500000000     0.035458000000000    -0.030804500000000
    -0.030804500000000    -0.030804500000000     0.035458000000000
2 25
     0.035458000000000     0.030804500000000     0.030804500000000
     0.030804500000000     0.035458000000000     0.030804500000000
     0.030804500000000     0.030804500000000     0.035458000000000
2 26
    -0.060521000000000     0.000000000000000     0.000000000000000
     0.000000000000000    -0.119188500000000    -0.398243500000000
     0.000000000000000    -0.398243500000000    -0.119188500000000
2 27
     0.035458000000000    -0.030804500000000    -0.030804500000000
    -0.030804500000000     0.035458000000000     0.030804500000000
    -0.030804500000000     0.030804500000000     0.035458000000000
3 1
    -0.381203500000000     0.000000000000000     0.000000000000000
     0.000000000000000     0.037871000000000     0.000000000000000
     0.000000000000000     0.000000000000000     0.037871000000000
3 2
    -0.381203500000000     0.000000000000000     0.000000000000000
    -0.000000000000000     0.037871000000000     0.000000000000000
    -0.000000000000000     0.000000000000000     0.037871000000000
3 3
     1.522849000000001     0.000000000000000     0.000000000000000
     0.000000000000000     1.522849000000001     0.000000000000000
     0.000000000000000     0.000000000000000     1.522849000000001
3 4
    -0.119188500000000    -0.398243500000000     0.000000000000000
    -0.398243500000000    -0.119188500000000     0.000000000000000
     0.000000000000000     0.000000000000000    -0.060521000000000
3 5
    -0.119188500000000     0.398243500000000     0.000000000000000
     0.398243500000000    -0.119188500000000     0.000000000000000
     0.000000000000000     0.000000000000000    -0.060521000000000
3 6
     0.037871000000000    -0.000000000000000     0.000000000000000
     0.000000000000000    -0.381203500000000     0.000000000000000
     0.000000000000000     0.000000000000000     0.037871000000000
3 7
    -0.119188500000000     0.398243500000000     0.000000000000000
     0.398243500000000    -0.119188500000000     0.000000000000000
     0.000000000000000     0.000000000000000    -0.060521000000000
3 8
    -0.119188500000000    -0.398243500000000     0.000000000000000
    -0.398243500000000    -0.119188500000000     0.000000000000000
     0.000000000000000     0.000000000000000    -0.060521000000000
3 9
     0.037871000000000     0.000000000000000     0.000000000000000
     0.000000000000000    -0.381203500000000     0.000000000000000
     0.000000000000000    -0.000000000000000     0.037871000000000
3 10
    -0.119188500000000     0.000000000000000    -0.398243500000000
     0.000000000000000    -0.060521000000000     0.000000000000000
    -0.398243500000000     0.000000000000000    -0.119188500000000
3 11
    -0.119188500000000     0.000000000000000     0.398243500000000
     0.000000000000000    -0.060521000000000     0.000000000000000
     0.398243500000000     0.000000000000000    -0.119188500000000
3 12
     0.037871000000000     0.000000000000000    -0.000000000000000
     0.000000000000000     0.037871000000000     0.000000000000000
     0.000000000000000     0.000000000000000    -0.381203500000000
3 13
     0.035458000000000     0.030804500000000     0.030804500000000
     0.030804500000000     0.035458000000000     0.030804500000000
     0.030804500000000     0.030804500000000     0.035458000000000
3 14
     0.035458000000000    -0.030804500000000    -0.030804500000000
    -0.030804500000000     0.035458000000000     0.030804500000000
    -0.030804500000000     0.030804500000000     0.035458000000000
3 15
    -0.060521000000000    -0.000000000000000    -0.000000000000000
     0.000000000000000    -0.119188500000000    -0.398243500000000
     0.000000000000000    -0.398243500000000    -0.119188500000000
3 16
     0.035458000000000    -0.030804500000000     0.030804500000000
    -0.030804500000000     0.035458000000000    -0.030804500000000
     0.030804500000000    -0.030804500000000     0.035458000000000
3 17
     0.035458000000000     0.030804500000000    -0.030804500000000
     0.030804500000000     0.035458000000000    -0.030804500000000
    -0.030804500000000    -0.030804500000000     0.035458000000000
3 18
    -0.060521000000000     0.000000000000000    -0.000000000000000
     0.000000000000000    -0.119188500000000     0.398243500000000
     0.000000000000000     0.398243500000000    -0.119188500000000
3 19
    -0.119188500000000     0.000000000000000     0.398243500000000
     0.000000000000000    -0.060521000000000     0.000000000000000
     0.398243500000000     0.000000000000000    -0.119188500000000
3 20
    -0.119188500000000     0.000000000000000    -0.398243500000000
     0.000000000000000    -0.060521000000000     0.000000000000000
    -0.398243500000000     0.000000000000000    -0.119188500000000
3 21
     0.037871000000000     0.000000000000000     0.000000000000000
     0.000000000000000     0.037871000000000    -0.000000000000000
     0.000000000000000     0.000000000000000    -0.381203500000000
3 22
     0.035458000000000     0.030804500000000    -0.030804500000000
     0.030804500000000     0.035458000000000    -0.030804500000000
    -0.030804500000000    -0.030804500000000     0.035458000000000
3 23
     0.035458000000000    -0.030804500000000     0.030804500000000
    -0.030804500000000     0.035458000000000    -0.030804500000000
     0.030804500000000    -0.030804500000000     0.035458000000000
3 24
    -0.060521000000000    -0.000000000000000     0.000000000000000
     0.000000000000000    -0.119188500000000     0.398243500000000
     0.000000000000000     0.398243500000000    -0.119188500000000
3 25
     0.035458000000000    -0.030804500000000    -0.030804500000000
    -0.030804500000000     0.035458000000000     0.030804500000000
    -0.030804500000000     0.030804500000000     0.035458000000000
3 26
     0.035458000000000     0.030804500000000     0.030804500000000
     0.030804500000000     0.035458000000000     0.030804500000000
     0.030804500000000     0.030804500000000     0.035458000000000
3 27
    -0.060521000000000     0.000000000000000     0.000000000000000
     0.000000000000000    -0.119188500000000    -0.398243500000000
     0.000000000000000    -0.398243500000000    -0.119188500000000
4 1
     0.037871000000000     0.000000000000000     0.000000000000000
     0.000000000000000    -0.381203500000000     0.000000000000000
     0.000000000000000    -0.000000000000000     0.037871000000000
4 2
    -0.119188500000000     0.398243500000000     0.000000000000000
     0.398243500000000    -0.119188500000000     0.000000000000000
     0.000000000000000     0.000000000000000    -0.060521000000000
4 3
    -0.119188500000000    -0.398243500000000     0.000000000000000
    -0.398243500000000    -0.119188500000000     0.000000000000000
     0.000000000000000     0.000000000000000    -0.060521000000000
4 4
     1.522849000000001     0.000000000000000     0.000000000000000
     0.000000000000000     1.522849000000001     0.000000000000000
     0.000000000000000     0.000000000000000     1.522849000000001
4 5
    -0.381203500000000     0.000000000000000     0.000000000000000
     0.000000000000000     0.037871000000000     0.000000000000000
     0.000000000000000     0.000000000000000     0.037871000000000
4 6
    -0.381203500000000     0.000000000000000     0.000000000000000
    -0.000000000000000     0.037871000000000     0.000000000000000
    -0.000000000000000     0.000000000000000     0.037871000000000
4 7
     0.037871000000000    -0.000000000000000     0.000000000000000
     0.000000000000000    -0.381203500000000     0.000000000000000
     0.000000000000000     0.000000000000000     0.037871000000000
4 8
    -0.119188500000000    -0.398243500000000     0.000000000000000
    -0.398243500000000    -0.119188500000000     0.000000000000000
     0.000000000000000     0.000000000000000    -0.060521000000000
4 9
    -0.119188500000000     0.398243500000000     0.000000000000000
     0.398243500000000    -0.119188500000000     0.000000000000000
     0.000000000000000     0.000000000000000    -0.060521000000000
4 10
    -0.060521000000000     0.000000000000000    -0.000000000000000
     0.000000000000000    -0.119188500000000     0.398243500000000
     0.000000000000000     0.398243500000000    -0.119188500000000
4 11
     0.035458000000000    -0.030804500000000     0.030804500000000
    -0.030804500000000     0.035458000000000    -0.030804500000000
     0.030804500000000    -0.030804500000000     0.035458000000000
4 12
     0.035458000000000     0.030804500000000    -0.030804500000000
     0.030804500000000     0.035458000000000    -0.030804500000000
    -0.030804500000000    -0.030804500000000     0.035458000000000
4 13
     0.037871000000000     0.000000000000000    -0.000000000000000
     0.000000000000000     0.037871000000000     0.000000000000000
     0.000000000000000     0.000000000000000    -0.381203500000000
4 14
    -0.119188500000000     0.000000000000000    -0.398243500000000
     0.000000000000000    -0.060521000000000     0.000000000000000
    -0.398243500000000     0.000000000000000    -0.119188500000000
4 15
    -0.119188500000000     0.000000000000000     0.398243500000000
     0.000000000000000    -0.060521000000000     0.000000000000000
     0.398243500000000     0.000000000000000    -0.119188500000000
4 16
    -0.060521000000000    -0.000000000000000    -0.000000000000000
     0.000000000000000    -0.119188500000000    -0.398243500000000
     0.000000000000000    -0.398243500000000    -0.119188500000000
4 17
     0.035458000000000     0.030804500000000     0.030804500000000
     0.030804500000000     0.035458000000000     0.030804500000000
     0.030804500000000     0.030804500000000     0.035458000000000
4 18
     0.035458000000000    -0.030804500000000    -0.030804500000000
    -0.030804500000000     0.035458000000000     0.030804500000000
    -0.030804500000000     0.030804500000000     0.035458000000000
4 19
    -0.060521000000000     0.000000000000000     0.000000000000000
     0.000000000000000    -0.119188500000000    -0.398243500000000
     0.000000000000000    -0.398243500000000    -0.119188500000000
4 20
     0.035458000000000    -0.030804500000000    -0.030804500000000
    -0.030804500000000     0.035458000000000     0.030804500000000
    -0.030804500000000     0.030804500000000     0.035458000000000
4 21
     0.035458000000000     0.030804500000000     0.030804500000000
     0.030804500000000     0.035458000000000     0.030804500000000
     0.030804500000000     0.030804500000000     0.035458000000000
4 22
     0.037871000000000     0.000000000000000     0.000000000000000
     0.000000000000000     0.037871000000000    -0.000000000000000
     0.000000000000000     0.000000000000000    -0.381203500000000
4 23
    -0.119188500000000     0.000000000000000     0.398243500000000
     0.000000000000000    -0.060521000000000     0.000000000000000
     0.398243500000000     0.000000000000000    -0.119188500000000
4 24
    -0.119188500000000     0.000000000000000    -0.398243500000000
     0.000000000000000    -0.060521000000000     0.000000000000000
    -0.398243500000000     0.000000000000000    -0.119188500000000
4 25
    -0.060521000000000    -0.000000000000000     0.000000000000000
     0.000000000000000    -0.119188500000000     0.398243500000000
     0.000000000000000     0.398243500000000    -0.119188500000000
4 26
     0.035458000000000     0.030804500000000    -0.030804500000000
     0.030804500000000     0.035458000000000    -0.030804500000000
    -0.030804500000000    -0.030804500000000     0.035458000000000
4 27
     0.035458000000000    -0.030804500000000     0.030804500000000
    -0.030804500000000     0.035458000000000    -0.030804500000000
     0.030804500000000    -0.030804500000000     0.035458000000000
5 1
    -0.119188500000000    -0.398243500000000     0.000000000000000
    -0.398243500000000    -0.119188500000000     0.000000000000000
     0.000000000000000     0.000000000000000    -0.060521000000000
5 2
     0.037871000000000     0.000000000000000     0.000000000000000
     0.000000000000000    -0.381203500000000     0.000000000000000
     0.000000000000000    -0.000000000000000     0.037871000000000
5 3
    -0.119188500000000     0.398243500000000     0.000000000000000
     0.398243500000000    -0.119188500000000     0.000000000000000
     0.000000000000000     0.000000000000000    -0.060521000000000
5 4
    -0.381203500000000     0.000000000000000     0.000000000000000
    -0.000000000000000     0.037871000000000     0.000000000000000
    -0.000000000000000     0.000000000000000     0.037871000000000
5 5
     1.522849000000001     0.000000000000000     0.000000000000000
     0.000000000000000     1.522849000000001     0.000000000000000
     0.000000000000000     0.000000000000000     1.522849000000001
5 6
    -0.381203500000000     0.000000000000000     0.000000000000000
     0.000000000000000     0.037871000000000     0.000000000000000
     0.000000000000000     0.000000000000000     0.037871000000000
5 7
    -0.119188500000000     0.398243500000000     0.000000000000000
     0.398243500000000    -0.119188500000000     0.000000000000000
     0.000000000000000     0.000000000000000    -0.060521000000000
5 8
     0.037871000000000    -0.000000000000000     0.000000000000000
     0.000000000000000    -0.381203500000000     0.000000000000000
     0.000000000000000     0.000000000000000     0.037871000000000
5 9
    -0.119188500000000    -0.398243500000000     0.000000000000000
    -0.398243500000000    -0.119188500000000     0.000000000000000
     0.000000000000000     0.000000000000000    -0.060521000000000
5 10
     0.035458000000000     0.030804500000000    -0.030804500000000
     0.030804500000000     0.035458000000000    -0.030804500000000
    -0.030804500000000    -0.030804500000000     0.035458000000000
5 11
    -0.060521000000000     0.000000000000000    -0.000000000000000
     0.000000000000000    -0.119188500000000     0.398243500000000
     0.000000000000000     0.398243500000000    -0.119188500000000
5 12
     0.035458000000000    -0.030804500000000     0.030804500000000
    -0.030804500000000     0.035458000000000    -0.030804500000000
     0.030804500000000    -0.030804500000000     0.035458000000000
5 13
    -0.119188500000000     0.000000000000000     0.398243500000000
     0.000000000000000    -0.060521000000000     0.000000000000000
     0.398243500000000     0.000000000000000    -0.119188500000000
5 14
     0.037871000000000     0.000000000000000    -0.000000000000000
     0.000000000000000     0.037871000000000     0.000000000000000
     0.000000000000000     0.000000000000000    -0.381203500000000
5 15
    -0.119188500000000     0.000000000000000    -0.398243500000000
     0.000000000000000    -0.060521000000000     0.000000000000000
    -0.398243500000000     0.000000000000000    -0.119188500000000
5 16
     0.035458000000000    -0.030804500000000    -0.030804500000000
    -0.030804500000000     0.035458000000000     0.030804500000000
    -0.030804500000000     0.030804500000000     0.035458000000000
5 17
    -0.060521000000000    -0.000000000000000    -0.000000000000000
     0.000000000000000    -0.119188500000000    -0.398243500000000
     0.000000000000000    -0.398243500000000    -0.119188500000000
5 18
     0.035458000000000     0.030804500000000     0.030804500000000
     0.030804500000000     0.035458000000000     0.030804500000000
     0.030804500000000     0.030804500000000     0.035458000000000
5 19
     0.035458000000000     0.030804500000000     0.030804500000000
     0.030804500000000     0.035458000000000     0.030804500000000
     0.030804500000000     0.030804500000000     0.035458000000000
5 20
    -0.060521000000000     0.000000000000000     0.000000000000000
     0.000000000000000    -0.119188500000000    -0.398243500000000
     0.000000000000000    -0.398243500000000    -0.119188500000000
5 21
     0.035458000000000    -0.030804500000000    -0.030804500000000
    -0.030804500000000     0.035458000000000     0.030804500000000
    -0.030804500000000     0.030804500000000     0.035458000000000
5 22
    -0.119188500000000     0.000000000000000    -0.398243500000000
     0.000000000000000    -0.060521000000000     0.000000000000000
    -0.398243500000000     0.000000000000000    -0.119188500000000
5 23
     0.037871000000000     0.000000000000000     0.000000000000000
     0.000000000000000     0.037871000000000    -0.000000000000000
     0.000000000000000     0.000000000000000    -0.381203500000000
5 24
    -0.119188500000000     0.000000000000000     0.398243500000000
     0.000000000000000    -0.060521000000000     0.000000000000000
     0.398243500000000     0.000000000000000    -0.119188500000000
5 25
     0.035458000000000    -0.030804500000000     0.030804500000000
    -0.030804500000000     0.035458000000000    -0.030804500000000
     0.030804500000000    -0.030804500000000     0.035458000000000
5 26
    -0.060521000000000    -0.000000000000000     0.000000000000000
     0.000000000000000    -0.119188500000000     0.398243500000000
     0.000000000000000     0.398243500000000    -0.119188500000000
5 27
     0.035458000000000     0.030804500000000    -0.030804500000000
     0.030804500000000     0.035458000000000    -0.030804500000000
    -0.030804500000000    -0.030804500000000     0.035458000000000
6 1
    -0.119188500000000     0.398243500000000     0.000000000000000
     0.398243500000000    -0.119188500000000     0.000000000000000
     0.000000000000000     0.000000000000000    -0.060521000000000
6 2
    -0.119188500000000    -0.398243500000000     0.000000000000000
    -0.398243500000000    -0.119188500000000     0.000000000000000
     0.000000000000000     0.000000000000000    -0.060521000000000
6 3
     0.037871000000000     0.000000000000000     0.000000000000000
     0.000000000000000    -0.381203500000000     0.000000000000000
     0.000000000000000    -0.000000000000000     0.037871000000000
6 4
    -0.381203500000000     0.000000000000000     0.000000000000000
     0.000000000000000     0.037871000000000     0.000000000000000
     0.000000000000000     0.000000000000000     0.037871000000000
6 5
    -0.381203500000000     0.000000000000000     0.000000000000000
    -0.000000000000000     0.037871000000000     0.000000000000000
    -0.000000000000000     0.000000000000000     0.037871000000000
6 6
     1.522849000000001     0.000000000000000     0.000000000000000
     0.000000000000000     1.522849000000001     0.000000000000000
     0.000000000000000     0.000000000000000     1.522849000000001
6 7
    -0.119188500000000    -0.398243500000000     0.000000000000000
    -0.398243500000000    -0.119188500000000     0.000000000000000
     0.000000000000000     0.000000000000000    -0.060521000000000
6 8
    -0.119188500000000     0.398243500000000     0.000000000000000
     0.398243500000000    -0.119188500000000     0.000000000000000
     0.000000000000000     0.000000000000000    -0.060521000000000
6 9
     0.037871000000000    -0.000000000000000     0.000000000000000
     0.000000000000000    -0.381203500000000     0.000000000000000
     0.000000000000000     0.000000000000000     0.037871000000000
6 10
     0.035458000000000    -0.030804500000000     0.030804500000000
    -0.030804500000000     0.035458000000000    -0.030804500000000
     0.030804500000000    -0.030804500000000     0.035458000000000
6 11
     0.035458000000000     0.030804500000000    -0.030804500000000
     0.030804500000000     0.035458000000000    -0.030804500000000