nqpoint: 153    
npath: 3      
segment_nqpoint:
- 51
- 51
- 51
labels:
- [ 'G', 'M' ]
- [ 'M', 'K' ]
- [ 'K', 'G' ]
reciprocal_lattice:
- [   0.40518146,   0.23393159,   0.00000000 ] # a*
- [   0.00000000,   0.46786318,   0.00000000 ] # b*
- [   0.00000000,   0.00000000,   0.05000427 ] # c*
natom: 2      
lattice:
- [     2.468030000000001,     0.000000000000000,     0.000000000000000 ] # a
- [    -1.234015000000000,     2.137377000000000,     0.000000000000000 ] # b
- [     0.000000000000000,     0.000000000000000,    19.998293000000000 ] # c
points:
- symbol: C  # 1
  coordinates: [  0.666667000000000,  0.333333000000000,  0.000000000000000 ]
  mass: 12.010700
- symbol: C  # 2
  coordinates: [  0.333333000000000,  0.666667000000000,  0.000000000000000 ]
  mass: 12.010700

phonon:
- q-position: [    0.0000000,    0.0000000,    0.0000000 ]
  distance:    0.0000000
  band:
  - # 1
    frequency:   -0.0062249045
    eigenvector:
    - # atom 1
      - [  0.68338903222708,  0.00000000000000 ]
      - [ -0.18160257709287,  0.00000000000000 ]
      - [ -0.00000000015952,  0.00000000000000 ]
    - # atom 2
      - [  0.68338894297194,  0.00000000000000 ]
      - [ -0.18160255297947,  0.00000000000000 ]
      - [ -0.00000000015952,  0.00000000000000 ]
  - # 2
    frequency:   -0.0062249037
    eigenvector:
    - # atom 1
      - [ -0.18160255297947,  0.00000000000000 ]
      - [ -0.68338894297194,  0.00000000000000 ]
      - [ -0.00000000061233,  0.00000000000000 ]
    - # atom 2
      - [ -0.18160257709287,  0.00000000000000 ]
      - [ -0.68338903222708,  0.00000000000000 ]
      - [ -0.00000000061233,  0.00000000000000 ]
  - # 3
    frequency:    0.0069153055
    eigenvector:
    - # atom 1
      - [ -0.00000000000309,  0.00000000000000 ]
      - [ -0.00000000063276,  0.00000000000000 ]
      - [  0.70710678118655,  0.00000000000000 ]
    - # atom 2
      - [ -0.00000000000309,  0.00000000000000 ]
      - [ -0.00000000063276,  0.00000000000000 ]
      - [  0.70710678118655,  0.00000000000000 ]
  - # 4
    frequency:   26.1264175897
    eigenvector:
    - # atom 1
      - [ -0.00000000000000,  0.00000000000000 ]
      - [ -0.00000000000000,  0.00000000000000 ]
      - [ -0.70710678118655,  0.00000000000000 ]
    - # atom 2
      - [ -0.00000000000000,  0.00000000000000 ]
      - [  0.00000000000000,  0.00000000000000 ]
      - [  0.70710678118655,  0.00000000000000 ]
  - # 5
    frequency:   47.0274874697
    eigenvector:
    - # atom 1
      - [ -0.18301271314145,  0.00000000000000 ]
      - [ -0.68301274673625,  0.00000000000000 ]
      - [  0.00000000000000,  0.00000000000000 ]
    - # atom 2
      - [  0.18301268921232,  0.00000000000000 ]
      - [  0.68301265743153,  0.00000000000000 ]
      - [ -0.00000000000000,  0.00000000000000 ]
  - # 6
    frequency:   47.0274936186
    eigenvector:
    - # atom 1
      - [ -0.68301265743153,  0.00000000000000 ]
      - [  0.18301268921232,  0.00000000000000 ]
      - [ -0.00000000000000,  0.00000000000000 ]
    - # atom 2
      - [  0.68301274673625,  0.00000000000000 ]
      - [ -0.18301271314145,  0.00000000000000 ]
      - [  0.00000000000000,  0.00000000000000 ]

- q-position: [    0.0100000,    0.0000000,    0.0000000 ]
  distance:    0.0046786
  band:
  - # 1
    frequency:    0.0302016434
    eigenvector:
    - # atom 1
      - [  0.00000000000012,  0.00000000000000 ]
      - [ -0.00000000000038,  0.00000000000000 ]
      - [ -0.70710518436188,  0.00150274700346 ]
    - # atom 2
      - [  0.00000000000012,  0.00000000000000 ]
      - [ -0.00000000000038, -0.00000000000000 ]
      - [ -0.70710518307924,  0.00150335041552 ]
  - # 2
    frequency:    0.6453463935
    eigenvector:
    - # atom 1
      - [  0.35355335380047,  0.00000000000000 ]
      - [ -0.61237245691905, -0.00000483107626 ]
      - [  0.00000000000038, -0.00000000000000 ]
    - # atom 2
      - [  0.35354328747684,  0.00265311977226 ]
      - [ -0.61235524270812, -0.00460016993619 ]
      - [  0.00000000000038, -0.00000000000000 ]
  - # 3
    frequency:    1.0254998736
    eigenvector:
    - # atom 1
      - [ -0.61237250319115,  0.00000000000000 ]
      - [ -0.35355327367688, -0.00000279082576 ]
      - [  0.00000000000009, -0.00000000000000 ]
    - # atom 2
      - [ -0.61235523683413,  0.00459479083568 ]
      - [ -0.35354339088680,  0.00265001495004 ]
      - [  0.00000000000009, -0.00000000000000 ]
  - # 4
    frequency:   26.1240816240
    eigenvector:
    - # atom 1
      - [  0.00000000000000,  0.00000000000000 ]
      - [ -0.00000000000000,  0.00000000000000 ]
      - [  0.70704649762824, -0.00923310303448 ]
    - # atom 2
      - [  0.00000000000000, -0.00000000000000 ]
      - [  0.00000000000000, -0.00000000000000 ]
      - [ -0.70704648974886,  0.00923370639646 ]
  - # 5
    frequency:   47.0204490798
    eigenvector:
    - # atom 1
      - [  0.35340682776629, -0.00000000000000 ]
      - [ -0.61245703042174, -0.00000254230456 ]
      - [ -0.00000000000000, -0.00000000000000 ]
    - # atom 2
      - [ -0.35339694066835, -0.00265422024706 ]
      - [  0.61243972988520,  0.00459724569398 ]
      - [  0.00000000000000,  0.00000000000000 ]
  - # 6
    frequency:   47.0332983329
    eigenvector:
    - # atom 1
      - [ -0.61245698415482,  0.00000000000000 ]
      - [ -0.35340690786477, -0.00000146538625 ]
      - [ -0.00000000000000, -0.00000000000000 ]
    - # atom 2
      - [  0.61243979933892, -0.00459415730847 ]
      - [  0.35339687394166, -0.00265243735037 ]
      - [  0.00000000000000,  0.00000000000000 ]

- q-position: [    0.0200000,    0.0000000,    0.0000000 ]
  distance:    0.0093573
  band:
  - # 1
    frequency:    0.0642300672
    eigenvector:
    - # atom 1
      - [  0.00000000000002,  0.00000000000000 ]
      - [ -0.00000000000005,  0.00000000000000 ]
      - [ -0.70669321982775,  0.02418042699130 ]
    - # atom 2
      - [  0.00000000000002,  0.00000000000000 ]
      - [ -0.00000000000005, -0.00000000000000 ]
      - [ -0.70669304845436,  0.02418543500299 ]
  - # 2
    frequency:    1.2896631381
    eigenvector:
    - # atom 1
      - [  0.35355335392588,  0.00000000000000 ]
      - [ -0.61237245686092, -0.00000242158901 ]
      - [  0.00000000000006, -0.00000000000000 ]
    - # atom 2
      - [  0.35351326420820,  0.00531668851341 ]
      - [ -0.61230324079941, -0.00921119746130 ]
      - [  0.00000000000006, -0.00000000000000 ]
  - # 3
    frequency:    2.0498967424
    eigenvector:
    - # atom 1
      - [  0.61237250319524,  0.00000000000000 ]
      - [  0.35355327367804,  0.00000140132303 ]
      - [ -0.00000000000001,  0.00000000000000 ]
    - # atom 2
      - [  0.61230329360715, -0.00920460332935 ]
      - [  0.35351340171144, -0.00531288300029 ]
      - [ -0.00000000000001,  0.00000000000000 ]
  - # 4
    frequency:   26.1170745932
    eigenvector:
    - # atom 1
      - [  0.00000000000000,  0.00000000000000 ]
      - [ -0.00000000000000,  0.00000000000000 ]
      - [  0.70687464085628, -0.01811745330633 ]
    - # atom 2
      - [  0.00000000000000,  0.00000000000000 ]
      - [ -0.00000000000000, -0.00000000000000 ]
      - [ -0.70687451244841,  0.01812246260381 ]
  - # 5
    frequency:   46.9993655724
    eigenvector:
    - # atom 1
      - [ -0.35351659367565,  0.00000000000000 ]
      - [  0.61239367893717,  0.00000128096480 ]
      - [  0.00000000000000,  0.00000000000000 ]
    - # atom 2
      - [  0.35347668350386,  0.00531724345462 ]
      - [ -0.61232437636109, -0.00920973654842 ]
      - [ -0.00000000000000, -0.00000000000000 ]
  - # 6
    frequency:   47.0505729508
    eigenvector:
    - # atom 1
      - [ -0.61239363260417,  0.00000000000000 ]
      - [ -0.35351667391717, -0.00000073624465 ]
      - [ -0.00000000000000, -0.00000000000000 ]
    - # atom 2
      - [  0.61232450466271, -0.00920428694836 ]
      - [  0.35347665054910, -0.00531409595346 ]
      - [ -0.00000000000000,  0.00000000000000 ]

- q-position: [    0.0300000,    0.0000000,    0.0000000 ]
  distance:    0.0140359
  band:
  - # 1
    frequency:    0.1074861363
    eigenvector:
    - # atom 1
      - [  0.00000000000001,  0.00000000000000 ]
      - [ -0.00000000000002,  0.00000000000000 ]
      - [ -0.70656701336547,  0.02762346147379 ]
    - # atom 2
      - [  0.00000000000001,  0.00000000000000 ]
      - [ -0.00000000000002, -0.00000000000000 ]
      - [ -0.70656634689768,  0.02764050346271 ]
  - # 2
    frequency:    1.9318291052
    eigenvector:
    - # atom 1
      - [  0.35355335414582,  0.00000000000000 ]
      - [ -0.61237245673658, -0.00000162108704 ]
      - [  0.00000000000002, -0.00000000000000 ]
    - # atom 2
      - [  0.35346269185406,  0.00800128704800 ]
      - [ -0.61221564673136, -0.01386025866212 ]
      - [  0.00000000000002, -0.00000000000000 ]
  - # 3
    frequency:    3.0720391936
    eigenvector:
    - # atom 1
      - [  0.61237250319569,  0.00000000000000 ]
      - [  0.35355327367878,  0.00000094079209 ]
      - [ -0.00000000000001,  0.00000000000000 ]
    - # atom 2
      - [  0.61221596394570, -0.01384418313600 ]
      - [  0.35346298234342, -0.00799200827119 ]
      - [ -0.00000000000001,  0.00000000000000 ]
  - # 4
    frequency:   26.1053987058
    eigenvector:
    - # atom 1
      - [  0.00000000000000,  0.00000000000000 ]
      - [ -0.00000000000000, -0.00000000000000 ]
      - [  0.70645445303232, -0.03036619486863 ]
    - # atom 2
      - [  0.00000000000000,  0.00000000000000 ]
      - [ -0.00000000000000, -0.00000000000000 ]
      - [ -0.70645372041138,  0.03038323414186 ]
  - # 5
    frequency:   46.9643624739
    eigenvector:
    - # atom 1
      - [ -0.35353691897271,  0.00000000000000 ]
      - [  0.61238194529726,  0.00000086535519 ]
      - [ -0.00000000000000, -0.00000000000000 ]
    - # atom 2
      - [  0.35344643673933,  0.00800166224594 ]
      - [ -0.61222504843550, -0.01385928649648 ]
      - [  0.00000000000000,  0.00000000000000 ]
  - # 6
    frequency:   47.0788718042
    eigenvector:
    - # atom 1
      - [ -0.61238189883876,  0.00000000000000 ]
      - [ -0.35353699943692, -0.00000049472488 ]
      - [  0.00000000000000,  0.00000000000000 ]
    - # atom 2
      - [  0.61222544143195, -0.01384397259546 ]
      - [  0.35344655626574, -0.00799281887997 ]
      - [ -0.00000000000000,  0.00000000000000 ]

- q-position: [    0.0400000,    0.0000000,    0.0000000 ]
  distance:    0.0187145
  band:
  - # 1
    frequency:    0.1622277842
    eigenvector:
    - # atom 1
      - [ -0.00000000000000,  0.00000000000000 ]
      - [  0.00000000000001,  0.00000000000000 ]
      - [ -0.70552428983200,  0.04728082546923 ]
    - # atom 2
      - [ -0.00000000000000, -0.00000000000000 ]
      - [  0.00000000000001,  0.00000000000000 ]
      - [ -0.70552157269101,  0.04732135318870 ]
  - # 2
    frequency:    2.5708026200
    eigenvector:
    - # atom 1
      - [  0.35355335445630,  0.00000000000000 ]
      - [ -0.61237245655825, -0.00000122279886 ]
      - [ -0.00000000000001,  0.00000000000000 ]
    - # atom 2
      - [  0.35339075368976,  0.01071775651427 ]
      - [ -0.61209104591730, -0.01856492417914 ]
      - [ -0.00000000000001,  0.00000000000000 ]
  - # 3
    frequency:    4.0908439451
    eigenvector:
    - # atom 1
      - [  0.61237250319473,  0.00000000000000 ]
      - [  0.35355327368097,  0.00000071251537 ]
      - [  0.00000000000000, -0.00000000000000 ]
    - # atom 2
      - [  0.61209212601730, -0.01852773456922 ]
      - [  0.35339148509082, -0.01069628835805 ]
      - [  0.00000000000000, -0.00000000000000 ]
  - # 4
    frequency:   26.0890563556
    eigenvector:
    - # atom 1
      - [  0.00000000000000,  0.00000000000000 ]
      - [  0.00000000000000, -0.00000000000000 ]
      - [  0.70571547014938, -0.04433593567124 ]
    - # atom 2
      - [  0.00000000000000, -0.00000000000000 ]
      - [ -0.00000000000000, -0.00000000000000 ]
      - [ -0.70571292217290,  0.04437647437764 ]
  - # 5
    frequency:   46.9156432263
    eigenvector:
    - # atom 1
      - [ -0.35354403216816,  0.00000000000000 ]
      - [  0.61237783869099,  0.00000066114060 ]
      - [ -0.00000000000000, -0.00000000000000 ]
    - # atom 2
      - [  0.35338161217142,  0.01071804347062 ]
      - [ -0.61209634070728, -0.01856419710179 ]
      - [  0.00000000000000, -0.00000000000000 ]
  - # 6
    frequency:   47.1174692339
    eigenvector:
    - # atom 1
      - [ -0.61237779205487,  0.00000000000000 ]
      - [ -0.35354411294187, -0.00000037516405 ]
      - [  0.00000000000000,  0.00000000000000 ]
    - # atom 2
      - [  0.61209749699920, -0.01852757706366 ]
      - [  0.35338217190882, -0.01069689835774 ]
      - [ -0.00000000000000,  0.00000000000000 ]

- q-position: [    0.0500000,    0.0000000,    0.0000000 ]
  distance:    0.0233932
  band:
  - # 1
    frequency:    0.2298213740
    eigenvector:
    - # atom 1
      - [ -0.00000000000000,  0.00000000000000 ]
      - [  0.00000000000000,  0.00000000000000 ]
      - [ -0.70592741816139, -0.04082254631926 ]
    - # atom 2
      - [ -0.00000000000000, -0.00000000000000 ]
      - [  0.00000000000000,  0.00000000000000 ]
      - [ -0.70593201180621, -0.04074303262198 ]
  - # 2
    frequency:    3.2055608887
    eigenvector:
    - # atom 1
      - [  0.35355335485852,  0.00000000000000 ]
      - [ -0.61237245632645, -0.00000098535953 ]
      - [ -0.00000000000000, -0.00000000000000 ]
    - # atom 2
      - [  0.35329627355237,  0.01347731998294 ]
      - [ -0.61192740118543, -0.02334439158677 ]
      - [ -0.00000000000000, -0.00000000000000 ]
  - # 3
    frequency:    5.1052662726
    eigenvector:
    - # atom 1
      - [  0.61237250319154,  0.00000000000000 ]
      - [  0.35355327368675,  0.00000057715321 ]
      - [  0.00000000000000,  0.00000000000000 ]
    - # atom 2
      - [  0.61193023793120, -0.02326867598332 ]
      - [  0.35329801974215, -0.01343360970478 ]
      - [  0.00000000000000,  0.00000000000000 ]
  - # 4
    frequency:   26.0680482467
    eigenvector:
    - # atom 1
      - [  0.00000000000000,  0.00000000000000 ]
      - [  0.00000000000000, -0.00000000000000 ]
      - [  0.70536137051056, -0.04965215998797 ]
    - # atom 2
      - [  0.00000000000000, -0.00000000000000 ]
      - [  0.00000000000000, -0.00000000000000 ]
      - [ -0.70535577337335,  0.04973160935350 ]
  - # 5
    frequency:   46.8534912857
    eigenvector:
    - # atom 1
      - [ -0.35354732392261,  0.00000000000000 ]
      - [  0.61237593825050,  0.00000054158332 ]
      - [ -0.00000000000000, -0.00000000000000 ]
    - # atom 2
      - [  0.35329042429402,  0.01347755534978 ]
      - [ -0.61193079513342, -0.02334381224246 ]
      - [  0.00000000000000,  0.00000000000000 ]
  - # 6
    frequency:   47.1653740406
    eigenvector:
    - # atom 1
      - [ -0.61237589138566,  0.00000000000000 ]
      - [ -0.35354740509332, -0.00000030442046 ]
      - [ -0.00000000000000,  0.00000000000000 ]
    - # atom 2
      - [  0.61193370860733, -0.02326855039653 ]
      - [  0.35329199792445, -0.01343409976079 ]
      - [ -0.00000000000000,  0.00000000000000 ]

- q-position: [    0.0600000,    0.0000000,    0.0000000 ]
  distance:    0.0280718
  band:
  - # 1
    frequency:    0.3110511575
    eigenvector:
    - # atom 1
      - [  0.00000000000000,  0.00000000000000 ]
      - [ -0.00000000000001, -0.00000000000000 ]
      - [ -0.70663227601317,  0.02590031846234 ]
    - # atom 2
      - [  0.00000000000000,  0.00000000000000 ]
      - [ -0.00000000000001, -0.00000000000000 ]
      - [ -0.70662720278052,  0.02603836190282 ]
  - # 2
    frequency:    3.8351123630
    eigenvector:
    - # atom 1
      - [  0.35355335535414,  0.00000000000000 ]
      - [ -0.61237245604054, -0.00000082830507 ]
      - [  0.00000000000001, -0.00000000000000 ]
    - # atom 2
      - [  0.35317768293922,  0.01629169374902 ]
      - [ -0.61172199581050, -0.02821887365069 ]
      - [  0.00000000000001, -0.00000000000000 ]
  - # 3
    frequency:    6.1143157312
    eigenvector:
    - # atom 1
      - [  0.61237250318496,  0.00000000000000 ]
      - [  0.35355327369829,  0.00000048826243 ]
      - [ -0.00000000000000,  0.00000000000000 ]
    - # atom 2
      - [  0.61172836529644, -0.02807942478109 ]
      - [  0.35318146947515, -0.01621118795953 ]
      - [ -0.00000000000000,  0.00000000000000 ]
  - # 4
    frequency:   26.0423708740
    eigenvector:
    - # atom 1
      - [  0.00000000000000,  0.00000000000000 ]
      - [ -0.00000000000000,  0.00000000000000 ]
      - [  0.70613895139021, -0.03698352781358 ]
    - # atom 2
      - [  0.00000000000000,  0.00000000000000 ]
      - [ -0.00000000000000, -0.00000000000000 ]
      - [ -0.70613171300996,  0.03712147466929 ]
  - # 5
    frequency:   46.7782687550
    eigenvector:
    - # atom 1
      - [ -0.35354911136961,  0.00000000000000 ]
      - [  0.61237490628737,  0.00000046447518 ]
      - [  0.00000000000000,  0.00000000000000 ]
    - # atom 2
      - [  0.35317362173162,  0.01629189590798 ]
      - [ -0.61172435729552, -0.02821839348982 ]
      - [ -0.00000000000000, -0.00000000000000 ]
  - # 6
    frequency:   47.2213530946
    eigenvector:
    - # atom 1
      - [ -0.61237485914314,  0.00000000000000 ]
      - [ -0.35354919302472, -0.00000025812022 ]
      - [ -0.00000000000000, -0.00000000000000 ]
    - # atom 2
      - [  0.61173080417924, -0.02807932055975 ]
      - [  0.35317723462050, -0.01621159837486 ]
      - [  0.00000000000000,  0.00000000000000 ]

- q-position: [    0.0700000,    0.0000000,    0.0000000 ]
  distance:    0.0327504
  band:
  - # 1
    frequency:    0.4063882919
    eigenvector:
    - # atom 1
      - [ -0.00000000000000,  0.00000000000000 ]
      - [  0.00000000000000,  0.00000000000000 ]
      - [ -0.64297730540706,  0.29424510995339 ]
    - # atom 2
      - [ -0.00000000000000, -0.00000000000000 ]
      - [  0.00000000000000,  0.00000000000000 ]
      - [ -0.64288567895991,  0.29444524752193 ]
  - # 2
    frequency:    4.4585040434
    eigenvector:
    - # atom 1
      - [  0.35355335594532,  0.00000000000000 ]
      - [ -0.61237245569936, -0.00000071714297 ]
      - [ -0.00000000000000,  0.00000000000000 ]
    - # atom 2
      - [  0.35303297854396,  0.01917318471989 ]
      - [ -0.61147135996451, -0.03320965207965 ]
      - [ -0.00000000000000,  0.00000000000000 ]
  - # 3
    frequency:    7.1170678919
    eigenvector:
    - # atom 1
      - [  0.61237250317344,  0.00000000000000 ]
      - [  0.35355327371831,  0.00000042594198 ]
      - [  0.00000000000000, -0.00000000000000 ]
    - # atom 2
      - [  0.61148421505303, -0.03297121933586 ]
      - [  0.35304051038991, -0.01903553151593 ]
      - [  0.00000000000000, -0.00000000000000 ]
  - # 4
    frequency:   26.0120134647
    eigenvector:
    - # atom 1
      - [  0.00000000000000,  0.00000000000000 ]
      - [  0.00000000000000, -0.00000000000000 ]
      - [  0.70251714030329, -0.08043424382737 ]
    - # atom 2
      - [  0.00000000000000, -0.00000000000000 ]
      - [  0.00000000000000,  0.00000000000000 ]
      - [ -0.70249206796289,  0.08065292585659 ]
  - # 5
    frequency:   46.6904146191
    eigenvector:
    - # atom 1
      - [ -0.35355018845028,  0.00000000000000 ]
      - [  0.61237428444318,  0.00000041175532 ]
      - [  0.00000000000000, -0.00000000000000 ]
    - # atom 2
      - [  0.35302999511026,  0.01917336423457 ]
      - [ -0.61147309900108, -0.03320924349792 ]
      - [  0.00000000000000,  0.00000000000000 ]
  - # 6
    frequency:   47.2839601780
    eigenvector:
    - # atom 1
      - [ -0.61237423696924,  0.00000000000000 ]
      - [ -0.35355027067673, -0.00000022582485 ]
      - [  0.00000000000000,  0.00000000000000 ]
    - # atom 2
      - [  0.61148603229961, -0.03297113045413 ]
      - [  0.35303735203374, -0.01903588528952 ]
      - [ -0.00000000000000, -0.00000000000000 ]

- q-position: [    0.0800000,    0.0000000,    0.0000000 ]
  distance:    0.0374291
  band:
  - # 1
    frequency:    0.5161404932
    eigenvector:
    - # atom 1
      - [ -0.00000000000000,  0.00000000000000 ]
      - [  0.00000000000000, -0.00000000000000 ]
      - [  0.70707028842272,  0.00718381721684 ]
    - # atom 2
      - [ -0.00000000000000, -0.00000000000000 ]
      - [  0.00000000000000,  0.00000000000000 ]
      - [  0.70707355993523,  0.00685425710979 ]
  - # 2
    frequency:    5.0748273080
    eigenvector:
    - # atom 1
      - [  0.35355335663451,  0.00000000000000 ]
      - [ -0.61237245530155, -0.00000063461986 ]
      - [  0.00000000000000,  0.00000000000000 ]
    - # atom 2
      - [  0.35285967016205,  0.02213477022735 ]
      - [ -0.61117118048701, -0.03833918703174 ]
      - [  0.00000000000000,  0.00000000000000 ]
  - # 3
    frequency:    8.1126741717
    eigenvector:
    - # atom 1
      - [  0.61237250315519,  0.00000000000000 ]
      - [  0.35355327374998,  0.00000038024431 ]
      - [ -0.00000000000000, -0.00000000000000 ]
    - # atom 2
      - [  0.61119517440421, -0.03795398317452 ]
      - [  0.35287363398616, -0.02191237968776 ]
      - [ -0.00000000000000, -0.00000000000000 ]
  - # 4
    frequency:   25.9769545047
    eigenvector:
    - # atom 1
      - [  0.00000000000000,  0.00000000000000 ]
      - [ -0.00000000000000,  0.00000000000000 ]
      - [  0.57093689855772, -0.41717029839778 ]
    - # atom 2
      - [  0.00000000000000, -0.00000000000000 ]
      - [ -0.00000000000000,  0.00000000000000 ]
      - [ -0.57074239708561,  0.41743636181935 ]
  - # 5
    frequency:   46.5904425786
    eigenvector:
    - # atom 1
      - [ -0.35355088680073,  0.00000000000000 ]
      - [  0.61237388125460,  0.00000037441896 ]
      - [ -0.00000000000000, -0.00000000000000 ]
    - # atom 2
      - [  0.35285738585069,  0.02213493376399 ]
      - [ -0.61117251561850, -0.03833883292292 ]
      - [  0.00000000000000,  0.00000000000000 ]
  - # 6
    frequency:   47.3515690500
    eigenvector:
    - # atom 1
      - [ -0.61237383340109,  0.00000000000000 ]
      - [ -0.35355096968481, -0.00000020232245 ]
      - [  0.00000000000000,  0.00000000000000 ]
    - # atom 2
      - [  0.61119658871213, -0.03795390587075 ]
      - [  0.35287117329478, -0.02191269116098 ]
      - [ -0.00000000000000,  0.00000000000000 ]

- q-position: [    0.0900000,    0.0000000,    0.0000000 ]
  distance:    0.0421077
  band:
  - # 1
    frequency:    0.6405271347
    eigenvector:
    - # atom 1
      - [  0.00000000000000,  0.00000000000000 ]
      - [ -0.00000000000000, -0.00000000000000 ]
      - [ -0.53583689060333, -0.46138793511377 ]
    - # atom 2
      - [  0.00000000000000,  0.00000000000000 ]
      - [ -0.00000000000000, -0.00000000000000 ]
      - [ -0.53614371159269, -0.46103136609087 ]
  - # 2
    frequency:    5.6832225436
    eigenvector:
    - # atom 1
      - [  0.35355335742439,  0.00000000000000 ]
      - [ -0.61237245484557, -0.00000057114393 ]
      - [  0.00000000000000,  0.00000000000000 ]
    - # atom 2
      - [  0.35265471896757,  0.02519015649108 ]
      - [ -0.61081619397708, -0.04363120879873 ]
      - [  0.00000000000000,  0.00000000000000 ]
  - # 3
    frequency:    9.1003697679
    eigenvector:
    - # atom 1
      - [  0.61237250312809,  0.00000000000000 ]
      - [  0.35355327379695,  0.00000034564596 ]
      - [ -0.00000000000000, -0.00000000000000 ]
    - # atom 2
      - [  0.61085835345210, -0.04303623464415 ]
      - [  0.35267917177916, -0.02484665608451 ]
      - [ -0.00000000000000, -0.00000000000000 ]
  - # 4
    frequency:   25.9371579976
    eigenvector:
    - # atom 1
      - [  0.00000000000000,  0.00000000000000 ]
      - [  0.00000000000000,  0.00000000000000 ]
      - [  0.69846125159460, -0.11023556604339 ]
    - # atom 2
      - [  0.00000000000000,  0.00000000000000 ]
      - [ -0.00000000000000, -0.00000000000000 ]
      - [ -0.69838776253311,  0.11070019486885 ]
  - # 5
    frequency:   46.4789384757
    eigenvector:
    - # atom 1
      - [ -0.35355136485173,  0.00000000000000 ]
      - [  0.61237360525402,  0.00000034748800 ]
      - [ -0.00000000000000,  0.00000000000000 ]
    - # atom 2
      - [  0.35265291354446,  0.02519030856203 ]
      - [ -0.61081725226948, -0.04363089791268 ]
      - [  0.00000000000000, -0.00000000000000 ]
  - # 6
    frequency:   47.4224096280
    eigenvector:
    - # atom 1
      - [ -0.61237355697160,  0.00000000000000 ]
      - [ -0.35355144847881, -0.00000018472487 ]
      - [  0.00000000000000, -0.00000000000000 ]
    - # atom 2
      - [  0.61085949205588, -0.04303616641491 ]
      - [  0.35267718834345, -0.02484693478377 ]
      - [ -0.00000000000000,  0.00000000000000 ]

- q-position: [    0.1000000,    0.0000000,    0.0000000 ]
  distance:    0.0467863
  band:
  - # 1
    frequency:    0.7797153088
    eigenvector:
    - # atom 1
      - [ -0.00000000000000,  0.00000000000000 ]
      - [  0.00000000000000,  0.00000000000000 ]
      - [ -0.70679000083470,  0.02116352333800 ]
    - # atom 2
      - [ -0.00000000000000, -0.00000000000000 ]
      - [  0.00000000000000,  0.00000000000000 ]
      - [ -0.70677036345736,  0.02180947817705 ]
  - # 2
    frequency:    6.2828825484
    eigenvector:
    - # atom 1
      - [  0.35355335831782,  0.00000000000000 ]
      - [ -0.61237245432979, -0.00000052095395 ]
      - [ -0.00000000000000,  0.00000000000000 ]
    - # atom 2
      - [  0.35241446628306,  0.02835381187272 ]
      - [ -0.61040006341928, -0.04911077157283 ]
      - [ -0.00000000000000,  0.00000000000000 ]
  - # 3
    frequency:   10.0794795361
    eigenvector:
    - # atom 1
      - [  0.61237250308978,  0.00000000000000 ]
      - [  0.35355327386334,  0.00000031883583 ]
      - [  0.00000000000000, -0.00000000000000 ]
    - # atom 2
      - [  0.61047062995686, -0.04822504313236 ]
      - [  0.35245532114141, -0.02784244554708 ]
      - [  0.00000000000000, -0.00000000000000 ]
  - # 4
    frequency:   25.8925696142
    eigenvector:
    - # atom 1
      - [  0.00000000000000,  0.00000000000000 ]
      - [  0.00000000000000, -0.00000000000000 ]
      - [  0.70422928274962, -0.06372689634646 ]
    - # atom 2
      - [  0.00000000000000, -0.00000000000000 ]
      - [  0.00000000000000,  0.00000000000000 ]
      - [ -0.70417074607114,  0.06437049306643 ]
  - # 5
    frequency:   46.3565573059
    eigenvector:
    - # atom 1
      - [ -0.35355170604607,  0.00000000000000 ]
      - [  0.61237340826670,  0.00000032799981 ]
      - [ -0.00000000000000,  0.00000000000000 ]
    - # atom 2
      - [  0.35241300294083,  0.02835395570916 ]
      - [ -0.61040092375167, -0.04911049619592 ]
      - [ -0.00000000000000, -0.00000000000000 ]
  - # 6
    frequency:   47.4946061317
    eigenvector:
    - # atom 1
      - [ -0.61237335950682,  0.00000000000000 ]
      - [ -0.35355179050025, -0.00000017130663 ]
      - [ -0.00000000000000, -0.00000000000000 ]
    - # atom 2
      - [  0.61047157192167, -0.04822498222943 ]
      - [  0.35245367798773, -0.02784269810472 ]
      - [ -0.00000000000000,  0.00000000000000 ]

- q-position: [    0.1100000,    0.0000000,    0.0000000 ]
  distance:    0.0514650
  band:
  - # 1
    frequency:    0.9338362315
    eigenvector:
    - # atom 1
      - [ -0.00000000000000,  0.00000000000000 ]
      - [  0.00000000000000, -0.00000000000000 ]
      - [  0.69482102692698, -0.13123924923641 ]
    - # atom 2
      - [ -0.00000000000000, -0.00000000000000 ]
      - [  0.00000000000000,  0.00000000000000 ]
      - [  0.69466082275007, -0.13208459916353 ]
  - # 2
    frequency:    6.8730546474
    eigenvector:
    - # atom 1
      - [  0.35355335931772,  0.00000000000000 ]
      - [ -0.61237245375253, -0.00000048037783 ]
      - [  0.00000000000000, -0.00000000000000 ]
    - # atom 2
      - [  0.35213455316109,  0.03164097100076 ]
      - [ -0.60991523889480, -0.05480425884993 ]
      - [  0.00000000000000, -0.00000000000000 ]
  - # 3
    frequency:   11.0494216569
    eigenvector:
    - # atom 1
      - [  0.61237250303761,  0.00000000000000 ]
      - [  0.35355327395372,  0.00000029770985 ]
      - [ -0.00000000000000,  0.00000000000000 ]
    - # atom 2
      - [  0.61002869450838, -0.05352603087007 ]
      - [  0.35220017138256, -0.03090299619397 ]
      - [ -0.00000000000000,  0.00000000000000 ]
  - # 4
    frequency:   25.8431129019
    eigenvector:
    - # atom 1
      - [ -0.00000000000000,  0.00000000000000 ]
      - [ -0.00000000000000, -0.00000000000000 ]
      - [  0.70477922620409,  0.05732575608887 ]
    - # atom 2
      - [  0.00000000000000,  0.00000000000000 ]
      - [ -0.00000000000000, -0.00000000000000 ]
      - [ -0.70484845752935, -0.05646814959333 ]
  - # 5
    frequency:   46.2240198086
    eigenvector:
    - # atom 1
      - [ -0.35355195772332,  0.00000000000000 ]
      - [  0.61237326296160,  0.00000031409337 ]
      - [ -0.00000000000000, -0.00000000000000 ]
    - # atom 2
      - [  0.35213334241277,  0.03164110902975 ]
      - [ -0.60991595280006, -0.05480401354144 ]
      - [  0.00000000000000, -0.00000000000000 ]
  - # 6
    frequency:   47.5662160484
    eigenvector:
    - # atom 1
      - [ -0.61237321367661,  0.00000000000000 ]
      - [ -0.35355204308706, -0.00000016097731 ]
      - [  0.00000000000000, -0.00000000000000 ]
    - # atom 2
      - [  0.61002949157472, -0.05352597602594 ]
      - [  0.35219877886842, -0.03090322739573 ]
      - [ -0.00000000000000,  0.00000000000000 ]

- q-position: [    0.1200000,    0.0000000,    0.0000000 ]
  distance:    0.0561436
  band:
  - # 1
    frequency:    1.1029916999
    eigenvector:
    - # atom 1
      - [ -0.00000000000000,  0.00000000000000 ]
      - [  0.00000000000000, -0.00000000000000 ]
      - [  0.66876050290063, -0.22969412217142 ]
    - # atom 2
      - [ -0.00000000000000, -0.00000000000000 ]
      - [  0.00000000000000, -0.00000000000000 ]
      - [  0.66839730099470, -0.23074888520425 ]
  - # 2
    frequency:    7.4530414833
    eigenvector:
    - # atom 1
      - [  0.35355336042704,  0.00000000000000 ]
      - [ -0.61237245311210, -0.00000044696187 ]
      - [  0.00000000000000, -0.00000000000000 ]
    - # atom 2