natom:   50
displacements:
- atom:    1
  direction:
    [   1.0000000000000000,  0.0000000000000000,  1.0000000000000000 ]
  displacement:
    [   0.0052513129686451,  0.0000000000000000,  0.0085102122244595 ]
lattice:
- [    12.340150000000001,     0.000000000000000,     0.000000000000000 ] # a
- [    -6.170075000000001,    10.686885000000000,     0.000000000000000 ] # b
- [     0.000000000000000,     0.000000000000000,    19.998293000000000 ] # c
points:
- symbol: C  # 1
  coordinates: [  0.133333400000000,  0.066666600000000,  0.000000000000000 ]
  mass: 12.010700
- symbol: C  # 2
  coordinates: [  0.333333400000000,  0.066666600000000,  0.000000000000000 ]
  mass: 12.010700
- symbol: C  # 3
  coordinates: [  0.533333400000000,  0.066666600000000,  0.000000000000000 ]
  mass: 12.010700
- symbol: C  # 4
  coordinates: [  0.733333400000000,  0.066666600000000,  0.000000000000000 ]
  mass: 12.010700
- symbol: C  # 5
  coordinates: [  0.933333400000000,  0.066666600000000,  0.000000000000000 ]
  mass: 12.010700
- symbol: C  # 6
  coordinates: [  0.133333400000000,  0.266666600000000,  0.000000000000000 ]
  mass: 12.010700
- symbol: C  # 7
  coordinates: [  0.333333400000000,  0.266666600000000,  0.000000000000000 ]
  mass: 12.010700
- symbol: C  # 8
  coordinates: [  0.533333400000000,  0.266666600000000,  0.000000000000000 ]
  mass: 12.010700
- symbol: C  # 9
  coordinates: [  0.733333400000000,  0.266666600000000,  0.000000000000000 ]
  mass: 12.010700
- symbol: C  # 10
  coordinates: [  0.933333400000000,  0.266666600000000,  0.000000000000000 ]
  mass: 12.010700
- symbol: C  # 11
  coordinates: [  0.133333400000000,  0.466666600000000,  0.000000000000000 ]
  mass: 12.010700
- symbol: C  # 12
  coordinates: [  0.333333400000000,  0.466666600000000,  0.000000000000000 ]
  mass: 12.010700
- symbol: C  # 13
  coordinates: [  0.533333400000000,  0.466666600000000,  0.000000000000000 ]
  mass: 12.010700
- symbol: C  # 14
  coordinates: [  0.733333400000000,  0.466666600000000,  0.000000000000000 ]
  mass: 12.010700
- symbol: C  # 15
  coordinates: [  0.933333400000000,  0.466666600000000,  0.000000000000000 ]
  mass: 12.010700
- symbol: C  # 16
  coordinates: [  0.133333400000000,  0.666666600000000,  0.000000000000000 ]
  mass: 12.010700
- symbol: C  # 17
  coordinates: [  0.333333400000000,  0.666666600000000,  0.000000000000000 ]
  mass: 12.010700
- symbol: C  # 18
  coordinates: [  0.533333400000000,  0.666666600000000,  0.000000000000000 ]
  mass: 12.010700
- symbol: C  # 19
  coordinates: [  0.733333400000000,  0.666666600000000,  0.000000000000000 ]
  mass: 12.010700
- symbol: C  # 20
  coordinates: [  0.933333400000000,  0.666666600000000,  0.000000000000000 ]
  mass: 12.010700
- symbol: C  # 21
  coordinates: [  0.133333400000000,  0.866666600000000,  0.000000000000000 ]
  mass: 12.010700
- symbol: C  # 22
  coordinates: [  0.333333400000000,  0.866666600000000,  0.000000000000000 ]
  mass: 12.010700
- symbol: C  # 23
  coordinates: [  0.533333400000000,  0.866666600000000,  0.000000000000000 ]
  mass: 12.010700
- symbol: C  # 24
  coordinates: [  0.733333400000000,  0.866666600000000,  0.000000000000000 ]
  mass: 12.010700
- symbol: C  # 25
  coordinates: [  0.933333400000000,  0.866666600000000,  0.000000000000000 ]
  mass: 12.010700
- symbol: C  # 26
  coordinates: [  0.066666600000000,  0.133333400000000,  0.000000000000000 ]
  mass: 12.010700
- symbol: C  # 27
  coordinates: [  0.266666600000000,  0.133333400000000,  0.000000000000000 ]
  mass: 12.010700
- symbol: C  # 28
  coordinates: [  0.466666600000000,  0.133333400000000,  0.000000000000000 ]
  mass: 12.010700
- symbol: C  # 29
  coordinates: [  0.666666600000000,  0.133333400000000,  0.000000000000000 ]
  mass: 12.010700
- symbol: C  # 30
  coordinates: [  0.866666600000000,  0.133333400000000,  0.000000000000000 ]
  mass: 12.010700
- symbol: C  # 31
  coordinates: [  0.066666600000000,  0.333333400000000,  0.000000000000000 ]
  mass: 12.010700
- symbol: C  # 32
  coordinates: [  0.266666600000000,  0.333333400000000,  0.000000000000000 ]
  mass: 12.010700
- symbol: C  # 33
  coordinates: [  0.466666600000000,  0.333333400000000,  0.000000000000000 ]
  mass: 12.010700
- symbol: C  # 34
  coordinates: [  0.666666600000000,  0.333333400000000,  0.000000000000000 ]
  mass: 12.010700
- symbol: C  # 35
  coordinates: [  0.866666600000000,  0.333333400000000,  0.000000000000000 ]
  mass: 12.010700
- symbol: C  # 36
  coordinates: [  0.066666600000000,  0.533333400000000,  0.000000000000000 ]
  mass: 12.010700
- symbol: C  # 37
  coordinates: [  0.266666600000000,  0.533333400000000,  0.000000000000000 ]
  mass: 12.010700
- symbol: C  # 38
  coordinates: [  0.466666600000000,  0.533333400000000,  0.000000000000000 ]
  mass: 12.010700
- symbol: C  # 39
  coordinates: [  0.666666600000000,  0.533333400000000,  0.000000000000000 ]
  mass: 12.010700
- symbol: C  # 40
  coordinates: [  0.866666600000000,  0.533333400000000,  0.000000000000000 ]
  mass: 12.010700
- symbol: C  # 41
  coordinates: [  0.066666600000000,  0.733333400000000,  0.000000000000000 ]
  mass: 12.010700
- symbol: C  # 42
  coordinates: [  0.266666600000000,  0.733333400000000,  0.000000000000000 ]
  mass: 12.010700
- symbol: C  # 43
  coordinates: [  0.466666600000000,  0.733333400000000,  0.000000000000000 ]
  mass: 12.010700
- symbol: C  # 44
  coordinates: [  0.666666600000000,  0.733333400000000,  0.000000000000000 ]
  mass: 12.010700
- symbol: C  # 45
  coordinates: [  0.866666600000000,  0.733333400000000,  0.000000000000000 ]
  mass: 12.010700
- symbol: C  # 46
  coordinates: [  0.066666600000000,  0.933333400000000,  0.000000000000000 ]
  mass: 12.010700
- symbol: C  # 47
  coordinates: [  0.266666600000000,  0.933333400000000,  0.000000000000000 ]
  mass: 12.010700
- symbol: C  # 48
  coordinates: [  0.466666600000000,  0.933333400000000,  0.000000000000000 ]
  mass: 12.010700
- symbol: C  # 49
  coordinates: [  0.666666600000000,  0.933333400000000,  0.000000000000000 ]
  mass: 12.010700
- symbol: C  # 50
  coordinates: [  0.866666600000000,  0.933333400000000,  0.000000000000000 ]
  mass: 12.010700