50   
1    

1    
  0.0052513129686451   0.0000000000000000   0.0085102122244595
  -0.3252478300   -0.0021660900   -0.1218083200
   0.0245370700   -0.0013465000   -0.0039814500
   0.0005980100   -0.0002060800   -0.0001186400
   0.0005849400    0.0003520300   -0.0001242400
   0.0242172900    0.0015151600   -0.0037571500
  -0.0044497800   -0.0179354200   -0.0038477700
  -0.0043840000    0.0181753300   -0.0038898500
   0.0019951000    0.0010884700    0.0005915600
   0.0011039900    0.0000746000   -0.0000907600
   0.0019693200   -0.0009291100    0.0005942000
  -0.0009093800   -0.0010630100   -0.0001206800
   0.0002350000    0.0000705600    0.0005929000
  -0.0009041300    0.0012252000   -0.0001221700
   0.0001604500    0.0006259300   -0.0000904000
   0.0001540500   -0.0004673000   -0.0000911300
  -0.0009085400   -0.0005147700   -0.0001179100
   0.0001515700   -0.0004687600   -0.0000915200
   0.0001629600    0.0006244900   -0.0000900200
  -0.0009049200    0.0006574200   -0.0001250000
   0.0002348700    0.0000828000    0.0005929200
  -0.0044714700   -0.0151504200   -0.0039594600
   0.0019664400   -0.0009215900    0.0005964100
   0.0011039800    0.0000780000   -0.0000907600
   0.0019978000    0.0010957600    0.0005893400
  -0.0043628300    0.0152370500   -0.0037772500
   0.1124176900   -0.0329463300    0.0526034200
   0.1147265000    0.0344475500    0.0514912500
  -0.0011093700   -0.0039330500   -0.0041126200
   0.0003447800   -0.0000753900    0.0004399900
  -0.0011158400    0.0037608500   -0.0041192900
  -0.0033842900    0.0024504500   -0.0041271200
   0.0102448000   -0.0000843200    0.0030939600
  -0.0034113000   -0.0026046000   -0.0041050000
  -0.0017510700   -0.0006817400    0.0003895300
  -0.0017360300    0.0005176800    0.0003909900
   0.0004025800   -0.0000420000    0.0004431900
   0.0006169400    0.0005768300   -0.0000938300
   0.0006266100   -0.0007358700   -0.0000923800
   0.0004002000   -0.0001073500    0.0004368800
  -0.0007048600   -0.0000817900    0.0003902800
   0.0032679200   -0.0014136300   -0.0041239000
   0.0000354100    0.0009126400   -0.0000942700
   0.0002601300   -0.0000747900    0.0000647400
   0.0000334600   -0.0010782700   -0.0000919200
   0.0032626200    0.0012249100   -0.0041084300
   0.0552163100    0.0005027900    0.0520601500
  -0.0004910000    0.0061571100    0.0030890000
  -0.0010980700    0.0002709600   -0.0000935500
  -0.0011065700   -0.0004071900   -0.0000926400
  -0.0005775000   -0.0062892200    0.0030987000
