  50   50
1 1
    61.936477970749813    -0.000000000000001     0.000000000000001
    -0.000000000000001    61.936477970749813    -0.000000000000000
     0.000000000000001    -0.000000000000001    14.313194170399935
1 2
    -4.642134897343690     0.272455978088370     0.000000000000000
    -0.272483211726548     2.668896319638642     0.000000000000000
    -0.000000000000000    -0.000000000000000     0.454609305223570
1 3
    -0.112645125641154     0.053138244069423     0.000000000000000
    -0.053129131807816     0.267782200539877     0.000000000000000
     0.000000000000000    -0.000000000000000     0.014269914403658
1 4
    -0.112645125641154    -0.053138244069423     0.000000000000000
     0.053129131807816     0.267782200539877    -0.000000000000000
    -0.000000000000000    -0.000000000000000     0.014269914403658
1 5
    -4.642134897343690    -0.272455978088370     0.000000000000000
     0.272483211726548     2.668896319638642    -0.000000000000000
    -0.000000000000000    -0.000000000000000     0.454609305223570
1 6
     0.841126687256085     3.438246323872607     0.000000000000000
     2.893306178125447    -2.814365264961133    -0.000000000000000
    -0.000000000000000     0.000000000000000     0.454609305223570
1 7
     0.841126687256085    -3.438246323872606     0.000000000000000
    -2.893306178125447    -2.814365264961133     0.000000000000000
     0.000000000000000     0.000000000000000     0.454609305223570
1 8
    -0.377467354081387    -0.192105991751390    -0.000000000000000
    -0.192105933743660    -0.155642495470958    -0.000000000000000
    -0.000000000000000     0.000000000000000    -0.069668454522118
1 9
    -0.210232807745011    -0.000000000000000     0.000000000000000
    -0.000000000000000     0.030152129703841     0.000000000000000
    -0.000000000000000    -0.000000000000000     0.010665225606533
1 10
    -0.377467354081387     0.192105991751390    -0.000000000000000
     0.192105933743660    -0.155642495470958    -0.000000000000000
    -0.000000000000000     0.000000000000000    -0.069668454522118
1 11
     0.172679307772345     0.217861311159198     0.000000000000000
     0.111593885542693    -0.017542232873621     0.000000000000000
    -0.000000000000000     0.000000000000000     0.014269914403658
1 12
    -0.044753500674091     0.000000000000000    -0.000000000000000
    -0.000000000000000    -0.488350001259376     0.000000000000000
    -0.000000000000000     0.000000000000000    -0.069667279463291
1 13
     0.172679307772345    -0.217861311159198     0.000000000000000
    -0.111593885542693    -0.017542232873621     0.000000000000000
     0.000000000000000    -0.000000000000000     0.014269914403658
1 14
    -0.029944104658372    -0.104089746974229     0.000000000000000
    -0.104089715543612    -0.150136573382798    -0.000000000000000
     0.000000000000000     0.000000000000000     0.010665225606533
1 15
    -0.029944104658372     0.104089746974229     0.000000000000000
     0.104089715543612    -0.150136573382798     0.000000000000000
    -0.000000000000000     0.000000000000000     0.010665225606533
1 16
     0.172671430216894     0.111598467348694     0.000000000000000
     0.217865793482546    -0.017534355318170    -0.000000000000000
    -0.000000000000000     0.000000000000000     0.014269914403658
1 17
    -0.029945617914670     0.104089324817053     0.000000000000000
     0.104089293386563    -0.150137599174051     0.000000000000000
    -0.000000000000000     0.000000000000000     0.010665617292809
1 18
    -0.029945617914670    -0.104089324817053     0.000000000000000
    -0.104089293386563    -0.150137599174051    -0.000000000000000
     0.000000000000000     0.000000000000000     0.010665617292809
1 19
     0.172671430216894    -0.111598467348694     0.000000000000000
    -0.217865793482546    -0.017534355318170     0.000000000000000
     0.000000000000000    -0.000000000000000     0.014269914403658
1 20
    -0.044730066165743    -0.000000000000000    -0.000000000000000
     0.000000000000000    -0.488379783386602    -0.000000000000000
    -0.000000000000000     0.000000000000000    -0.069668454522118
1 21
     0.841150343530034     2.893293393821283     0.000000000000000
     3.438231627716331    -2.814388921235083    -0.000000000000000
    -0.000000000000000     0.000000000000000     0.454609305223570
1 22
    -0.377450876113055     0.192082948268756    -0.000000000000000
     0.192082890267984    -0.155652625820412     0.000000000000000
    -0.000000000000000     0.000000000000000    -0.069667279463291
1 23
    -0.210233589803742    -0.000000000000000     0.000000000000000
     0.000000000000000     0.030150372715020    -0.000000000000000
    -0.000000000000000    -0.000000000000000     0.010665617292809
1 24
    -0.377450876113055    -0.192082948268756    -0.000000000000000
    -0.192082890267984    -0.155652625820412     0.000000000000000
    -0.000000000000000     0.000000000000000    -0.069667279463291
1 25
     0.841150343530034    -2.893293393821283     0.000000000000000
    -3.438231627716331    -2.814388921235083    -0.000000000000000
     0.000000000000000     0.000000000000000     0.454609305223570
1 26
   -21.627657451148213     6.416364218588468    -0.000000000000000
     6.416362281123014   -14.218679352103026    -0.000000000000000
    -0.000000000000001     0.000000000000000    -6.116369990993094
1 27
   -21.627657451148217    -6.416364218588468    -0.000000000000001
    -6.416362281123015   -14.218679352103026    -0.000000000000000
    -0.000000000000000     0.000000000000000    -6.116369990993094
1 28
     0.211874115178348     0.732571517331624     0.000000000000000
     0.732551618514020    -0.053801901310501    -0.000000000000000
    -0.000000000000000     0.000000000000000     0.483661263836628
1 29
    -0.065656929012057    -0.000000000000000    -0.000000000000000
    -0.000000000000000    -0.080028541377530    -0.000000000000000
    -0.000000000000000     0.000000000000000    -0.051704938536706
1 30
     0.211874115178348    -0.732571517331624     0.000000000000000
    -0.732551618514019    -0.053801901310501    -0.000000000000000
     0.000000000000000    -0.000000000000000     0.483661263836628
1 31
     0.647034030467741    -0.481312107548449     0.000000000000000
    -0.481331639825516    -0.488961816599894    -0.000000000000000
     0.000000000000000     0.000000000000000     0.483661263836628
1 32
    -1.950889013853728     0.000000000000000    -0.000000000000000
    -0.000000000000000     0.785935911675221    -0.000000000000000
    -0.000000000000000    -0.000000000000000    -0.363549883958759
1 33
     0.647034030467741     0.481312107548449     0.000000000000000
     0.481331639825516    -0.488961816599894     0.000000000000000
    -0.000000000000000     0.000000000000000     0.483661263836628
1 34
     0.332022933929249     0.114199824768205    -0.000000000000000
     0.114199790284780     0.200156354695602     0.000000000000000
    -0.000000000000000    -0.000000000000000    -0.045858629182594
1 35
     0.332022933929249    -0.114199824768205    -0.000000000000000
    -0.114199790284780     0.200156354695602    -0.000000000000000
     0.000000000000000    -0.000000000000000    -0.045858629182594
1 36
    -0.076435638286162    -0.006223091640474    -0.000000000000000
    -0.006223089761368    -0.069249832103425    -0.000000000000000
    -0.000000000000000     0.000000000000000    -0.051704938536706
1 37
    -0.118404941060061    -0.124982638835120     0.000000000000000
    -0.124986409665927     0.175039666212122     0.000000000000000
     0.000000000000000    -0.000000000000000     0.010939601842802
1 38
    -0.118404941060061     0.124982638835120     0.000000000000000
     0.124986409665927     0.175039666212122    -0.000000000000000
    -0.000000000000000    -0.000000000000000     0.010939601842802
1 39
    -0.076435638286162     0.006223091640474    -0.000000000000000
     0.006223089761368    -0.069249832103425     0.000000000000000
    -0.000000000000000     0.000000000000000    -0.051704938536706
1 40
     0.134223065078778     0.000000000000000    -0.000000000000000
    -0.000000000000000     0.397956223546072    -0.000000000000000
     0.000000000000000    -0.000000000000000    -0.045858629182594
1 41
    -0.621799824844319     0.251229893355393     0.000000000000000
     0.251249495107373     0.779872038712165    -0.000000000000000
    -0.000000000000000    -0.000000000000000     0.483661263836628
1 42
    -0.006561258687038    -0.189559437280802     0.000000000000000
    -0.189555571471845     0.063195983839098     0.000000000000000
     0.000000000000000    -0.000000000000000     0.010939601842802
1 43
    -0.049536182960947     0.000000000000000    -0.000000000000000
     0.000000000000000    -0.049536182960948    -0.000000000000000
    -0.000000000000000     0.000000000000000    -0.007607330850567
1 44
    -0.006561258687037     0.189559437280802     0.000000000000000
     0.189555571471845     0.063195983839098    -0.000000000000000
    -0.000000000000000     0.000000000000000     0.010939601842802
1 45
    -0.621799824844319    -0.251229893355393     0.000000000000000
    -0.251249495107373     0.779872038712165    -0.000000000000000
    -0.000000000000000    -0.000000000000000     0.483661263836628
1 46
   -10.514190302580435     0.000000000000000    -0.000000000000001
    -0.000000000000000   -25.332146500670802    -0.000000000000000
    -0.000000000000000     0.000000000000001    -6.116369990993094
1 47
     0.101729680292984    -1.185080134530838    -0.000000000000000
    -1.185079776687714    -1.266682782471491    -0.000000000000000
     0.000000000000000     0.000000000000000    -0.363549883958759
1 48
     0.209918287475189    -0.064571085588691     0.000000000000000
    -0.064574874661183    -0.153283562323129     0.000000000000000
     0.000000000000000     0.000000000000000     0.010939601842802
1 49
     0.209918287475189     0.064571085588691     0.000000000000000
     0.064574874661183    -0.153283562323129    -0.000000000000000
     0.000000000000000     0.000000000000000     0.010939601842802
1 50
     0.101729680292984     1.185080134530838    -0.000000000000000
     1.185079776687714    -1.266682782471491    -0.000000000000000
    -0.000000000000000     0.000000000000000    -0.363549883958759
2 1
    -4.642134897343690    -0.272455978088370     0.000000000000000
     0.272483211726548     2.668896319638642    -0.000000000000000
    -0.000000000000000    -0.000000000000000     0.454609305223570
2 2
    61.936477970749813     0.000000000000000     0.000000000000001
     0.000000000000001    61.936477970749813    -0.000000000000000
     0.000000000000001    -0.000000000000001    14.313194170399935
2 3
    -4.642134897343690     0.272455978088369     0.000000000000000
    -0.272483211726548     2.668896319638642     0.000000000000000
    -0.000000000000000    -0.000000000000000     0.454609305223570
2 4
    -0.112645125641154     0.053138244069423     0.000000000000000
    -0.053129131807816     0.267782200539877     0.000000000000000
     0.000000000000000    -0.000000000000000     0.014269914403658
2 5
    -0.112645125641154    -0.053138244069423     0.000000000000000
     0.053129131807816     0.267782200539877    -0.000000000000000
    -0.000000000000000    -0.000000000000000     0.014269914403658
2 6
    -0.377467354081387     0.192105991751390    -0.000000000000000
     0.192105933743660    -0.155642495470958    -0.000000000000000
    -0.000000000000000     0.000000000000000    -0.069668454522118
2 7
     0.841126687256085     3.438246323872607     0.000000000000000
     2.893306178125447    -2.814365264961133    -0.000000000000000
    -0.000000000000000     0.000000000000000     0.454609305223570
2 8
     0.841126687256085    -3.438246323872606     0.000000000000000
    -2.893306178125447    -2.814365264961133     0.000000000000000
     0.000000000000000     0.000000000000000     0.454609305223570
2 9
    -0.377467354081387    -0.192105991751390    -0.000000000000000
    -0.192105933743660    -0.155642495470958    -0.000000000000000
    -0.000000000000000     0.000000000000000    -0.069668454522118
2 10
    -0.210232807745011    -0.000000000000000     0.000000000000000
    -0.000000000000000     0.030152129703841     0.000000000000000
    -0.000000000000000    -0.000000000000000     0.010665225606533
2 11
    -0.029944104658372     0.104089746974229     0.000000000000000
     0.104089715543612    -0.150136573382798     0.000000000000000
    -0.000000000000000     0.000000000000000     0.010665225606533
2 12
     0.172679307772345     0.217861311159198     0.000000000000000
     0.111593885542693    -0.017542232873621     0.000000000000000
    -0.000000000000000     0.000000000000000     0.014269914403658
2 13
    -0.044753500674091    -0.000000000000000    -0.000000000000000
    -0.000000000000000    -0.488350001259376     0.000000000000000
    -0.000000000000000     0.000000000000000    -0.069667279463291
2 14
     0.172679307772345    -0.217861311159198     0.000000000000000
    -0.111593885542693    -0.017542232873621     0.000000000000000
     0.000000000000000    -0.000000000000000     0.014269914403658
2 15
    -0.029944104658372    -0.104089746974229     0.000000000000000
    -0.104089715543612    -0.150136573382798    -0.000000000000000
     0.000000000000000     0.000000000000000     0.010665225606533
2 16
    -0.044730066165743    -0.000000000000000    -0.000000000000000
    -0.000000000000000    -0.488379783386602    -0.000000000000000
    -0.000000000000000     0.000000000000000    -0.069668454522118
2 17
     0.172671430216894     0.111598467348694     0.000000000000000
     0.217865793482546    -0.017534355318170    -0.000000000000000
    -0.000000000000000     0.000000000000000     0.014269914403658
2 18
    -0.029945617914670     0.104089324817053     0.000000000000000
     0.104089293386563    -0.150137599174051     0.000000000000000
    -0.000000000000000     0.000000000000000     0.010665617292809
2 19
    -0.029945617914670    -0.104089324817053     0.000000000000000
    -0.104089293386563    -0.150137599174051    -0.000000000000000
     0.000000000000000     0.000000000000000     0.010665617292809
2 20
     0.172671430216894    -0.111598467348694     0.000000000000000
    -0.217865793482546    -0.017534355318170     0.000000000000000
     0.000000000000000    -0.000000000000000     0.014269914403658
2 21
     0.841150343530034    -2.893293393821283     0.000000000000000
    -3.438231627716331    -2.814388921235083    -0.000000000000000
     0.000000000000000     0.000000000000000     0.454609305223570
2 22
     0.841150343530034     2.893293393821283     0.000000000000000
     3.438231627716331    -2.814388921235083    -0.000000000000000
    -0.000000000000000     0.000000000000000     0.454609305223570
2 23
    -0.377450876113055     0.192082948268756    -0.000000000000000
     0.192082890267984    -0.155652625820412     0.000000000000000
    -0.000000000000000     0.000000000000000    -0.069667279463291
2 24
    -0.210233589803742    -0.000000000000000     0.000000000000000
    -0.000000000000000     0.030150372715020    -0.000000000000000
    -0.000000000000000    -0.000000000000000     0.010665617292809
2 25
    -0.377450876113055    -0.192082948268756    -0.000000000000000
    -0.192082890267984    -0.155652625820412     0.000000000000000
    -0.000000000000000     0.000000000000000    -0.069667279463291
2 26
     0.211874115178348    -0.732571517331624     0.000000000000000
    -0.732551618514019    -0.053801901310501    -0.000000000000000
     0.000000000000000    -0.000000000000000     0.483661263836628
2 27
   -21.627657451148213     6.416364218588467    -0.000000000000000
     6.416362281123013   -14.218679352103026    -0.000000000000000
    -0.000000000000001     0.000000000000000    -6.116369990993094
2 28
   -21.627657451148217    -6.416364218588469    -0.000000000000001
    -6.416362281123016   -14.218679352103026    -0.000000000000000
    -0.000000000000000     0.000000000000000    -6.116369990993094
2 29
     0.211874115178348     0.732571517331624     0.000000000000000
     0.732551618514020    -0.053801901310501    -0.000000000000000
    -0.000000000000000     0.000000000000000     0.483661263836628
2 30
    -0.065656929012057    -0.000000000000000    -0.000000000000000
    -0.000000000000000    -0.080028541377530    -0.000000000000000
    -0.000000000000000     0.000000000000000    -0.051704938536706
2 31
     0.332022933929249    -0.114199824768205    -0.000000000000000
    -0.114199790284780     0.200156354695602    -0.000000000000000
     0.000000000000000    -0.000000000000000    -0.045858629182594
2 32
     0.647034030467741    -0.481312107548449     0.000000000000000
    -0.481331639825516    -0.488961816599894    -0.000000000000000
     0.000000000000000     0.000000000000000     0.483661263836628
2 33
    -1.950889013853728    -0.000000000000000    -0.000000000000000
    -0.000000000000000     0.785935911675221    -0.000000000000000
    -0.000000000000000    -0.000000000000000    -0.363549883958759
2 34
     0.647034030467741     0.481312107548449     0.000000000000000
     0.481331639825516    -0.488961816599894     0.000000000000000
    -0.000000000000000     0.000000000000000     0.483661263836628
2 35
     0.332022933929249     0.114199824768205    -0.000000000000000
     0.114199790284780     0.200156354695602     0.000000000000000
    -0.000000000000000    -0.000000000000000    -0.045858629182594
2 36
     0.134223065078778     0.000000000000000    -0.000000000000000
     0.000000000000000     0.397956223546072    -0.000000000000000
     0.000000000000000    -0.000000000000000    -0.045858629182594
2 37
    -0.076435638286162    -0.006223091640474    -0.000000000000000
    -0.006223089761368    -0.069249832103425    -0.000000000000000
    -0.000000000000000     0.000000000000000    -0.051704938536706
2 38
    -0.118404941060061    -0.124982638835120     0.000000000000000
    -0.124986409665927     0.175039666212122     0.000000000000000
     0.000000000000000    -0.000000000000000     0.010939601842802
2 39
    -0.118404941060061     0.124982638835120     0.000000000000000
     0.124986409665927     0.175039666212122    -0.000000000000000
    -0.000000000000000    -0.000000000000000     0.010939601842802
2 40
    -0.076435638286162     0.006223091640474    -0.000000000000000
     0.006223089761368    -0.069249832103425     0.000000000000000
    -0.000000000000000     0.000000000000000    -0.051704938536706
2 41
    -0.621799824844319    -0.251229893355393     0.000000000000000
    -0.251249495107373     0.779872038712165    -0.000000000000000
    -0.000000000000000    -0.000000000000000     0.483661263836628
2 42
    -0.621799824844319     0.251229893355393     0.000000000000000
     0.251249495107373     0.779872038712165    -0.000000000000000
    -0.000000000000000    -0.000000000000000     0.483661263836628
2 43
    -0.006561258687038    -0.189559437280802     0.000000000000000
    -0.189555571471845     0.063195983839098     0.000000000000000
     0.000000000000000    -0.000000000000000     0.010939601842802
2 44
    -0.049536182960947    -0.000000000000000    -0.000000000000000
    -0.000000000000000    -0.049536182960948    -0.000000000000000
    -0.000000000000000     0.000000000000000    -0.007607330850567
2 45
    -0.006561258687037     0.189559437280802     0.000000000000000
     0.189555571471845     0.063195983839098    -0.000000000000000
    -0.000000000000000     0.000000000000000     0.010939601842802
2 46
     0.101729680292984     1.185080134530838    -0.000000000000000
     1.185079776687714    -1.266682782471491    -0.000000000000000
    -0.000000000000000     0.000000000000000    -0.363549883958759
2 47
   -10.514190302580435    -0.000000000000000    -0.000000000000001
    -0.000000000000001   -25.332146500670802    -0.000000000000000
    -0.000000000000000     0.000000000000001    -6.116369990993094
2 48
     0.101729680292984    -1.185080134530838    -0.000000000000000
    -1.185079776687714    -1.266682782471491    -0.000000000000000
     0.000000000000000     0.000000000000000    -0.363549883958759
2 49
     0.209918287475189    -0.064571085588691     0.000000000000000
    -0.064574874661183    -0.153283562323129     0.000000000000000
     0.000000000000000     0.000000000000000     0.010939601842802
2 50
     0.209918287475189     0.064571085588691     0.000000000000000
     0.064574874661183    -0.153283562323129    -0.000000000000000
     0.000000000000000     0.000000000000000     0.010939601842802
3 1
    -0.112645125641154    -0.053138244069423     0.000000000000000
     0.053129131807816     0.267782200539877    -0.000000000000000
    -0.000000000000000    -0.000000000000000     0.014269914403658
3 2
    -4.642134897343690    -0.272455978088370     0.000000000000000
     0.272483211726548     2.668896319638642    -0.000000000000000
    -0.000000000000000    -0.000000000000000     0.454609305223570
3 3
    61.936477970749813     0.000000000000000     0.000000000000001
     0.000000000000001    61.936477970749813    -0.000000000000000
     0.000000000000001    -0.000000000000001    14.313194170399935
3 4
    -4.642134897343690     0.272455978088369     0.000000000000000
    -0.272483211726548     2.668896319638642     0.000000000000000
    -0.000000000000000    -0.000000000000000     0.454609305223570
3 5
    -0.112645125641154     0.053138244069423     0.000000000000000
    -0.053129131807816     0.267782200539877     0.000000000000000
     0.000000000000000    -0.000000000000000     0.014269914403658
3 6
    -0.210232807745011    -0.000000000000000     0.000000000000000
    -0.000000000000000     0.030152129703841     0.000000000000000
    -0.000000000000000    -0.000000000000000     0.010665225606533
3 7
    -0.377467354081387     0.192105991751390    -0.000000000000000
     0.192105933743660    -0.155642495470958    -0.000000000000000
    -0.000000000000000     0.000000000000000    -0.069668454522118
3 8
     0.841126687256085     3.438246323872607     0.000000000000000
     2.893306178125447    -2.814365264961133    -0.000000000000000
    -0.000000000000000     0.000000000000000     0.454609305223570
3 9
     0.841126687256085    -3.438246323872606     0.000000000000000
    -2.893306178125447    -2.814365264961133     0.000000000000000
     0.000000000000000     0.000000000000000     0.454609305223570
3 10
    -0.377467354081387    -0.192105991751390    -0.000000000000000
    -0.192105933743660    -0.155642495470958    -0.000000000000000
    -0.000000000000000     0.000000000000000    -0.069668454522118
3 11
    -0.029944104658372    -0.104089746974229     0.000000000000000
    -0.104089715543612    -0.150136573382798    -0.000000000000000
     0.000000000000000     0.000000000000000     0.010665225606533
3 12
    -0.029944104658372     0.104089746974229     0.000000000000000
     0.104089715543612    -0.150136573382798     0.000000000000000
    -0.000000000000000     0.000000000000000     0.010665225606533
3 13
     0.172679307772345     0.217861311159198     0.000000000000000
     0.111593885542693    -0.017542232873621     0.000000000000000
    -0.000000000000000     0.000000000000000     0.014269914403658
3 14
    -0.044753500674091    -0.000000000000000    -0.000000000000000
    -0.000000000000000    -0.488350001259376     0.000000000000000
    -0.000000000000000     0.000000000000000    -0.069667279463291
3 15
     0.172679307772345    -0.217861311159198     0.000000000000000
    -0.111593885542693    -0.017542232873621     0.000000000000000
     0.000000000000000    -0.000000000000000     0.014269914403658
3 16
     0.172671430216894    -0.111598467348694     0.000000000000000
    -0.217865793482546    -0.017534355318170     0.000000000000000
     0.000000000000000    -0.000000000000000     0.014269914403658
3 17
    -0.044730066165743    -0.000000000000000    -0.000000000000000
    -0.000000000000000    -0.488379783386602    -0.000000000000000
    -0.000000000000000     0.000000000000000    -0.069668454522118
3 18
     0.172671430216894     0.111598467348694     0.000000000000000
     0.217865793482546    -0.017534355318170    -0.000000000000000
    -0.000000000000000     0.000000000000000     0.014269914403658
3 19
    -0.029945617914670     0.104089324817053     0.000000000000000
     0.104089293386563    -0.150137599174051     0.000000000000000
    -0.000000000000000     0.000000000000000     0.010665617292809
3 20
    -0.029945617914670    -0.104089324817053     0.000000000000000
    -0.104089293386563    -0.150137599174051    -0.000000000000000
     0.000000000000000     0.000000000000000     0.010665617292809
3 21
    -0.377450876113055    -0.192082948268756    -0.000000000000000
    -0.192082890267984    -0.155652625820412     0.000000000000000
    -0.000000000000000     0.000000000000000    -0.069667279463291
3 22
     0.841150343530034    -2.893293393821283     0.000000000000000
    -3.438231627716331    -2.814388921235083    -0.000000000000000
     0.000000000000000     0.000000000000000     0.454609305223570
3 23
     0.841150343530034     2.893293393821283     0.000000000000000
     3.438231627716331    -2.814388921235083    -0.000000000000000
    -0.000000000000000     0.000000000000000     0.454609305223570
3 24
    -0.377450876113055     0.192082948268756    -0.000000000000000
     0.192082890267984    -0.155652625820412     0.000000000000000
    -0.000000000000000     0.000000000000000    -0.069667279463291
3 25
    -0.210233589803742    -0.000000000000000     0.000000000000000
    -0.000000000000000     0.030150372715020    -0.000000000000000
    -0.000000000000000    -0.000000000000000     0.010665617292809
3 26
    -0.065656929012057    -0.000000000000000    -0.000000000000000
    -0.000000000000000    -0.080028541377530    -0.000000000000000
    -0.000000000000000     0.000000000000000    -0.051704938536706
3 27
     0.211874115178348    -0.732571517331624     0.000000000000000
    -0.732551618514019    -0.053801901310501    -0.000000000000000
     0.000000000000000    -0.000000000000000     0.483661263836628
3 28
   -21.627657451148213     6.416364218588467    -0.000000000000000
     6.416362281123013   -14.218679352103026    -0.000000000000000
    -0.000000000000001     0.000000000000000    -6.116369990993094
3 29
   -21.627657451148217    -6.416364218588469    -0.000000000000001
    -6.416362281123016   -14.218679352103026    -0.000000000000000
    -0.000000000000000     0.000000000000000    -6.116369990993094
3 30
     0.211874115178348     0.732571517331624     0.000000000000000
     0.732551618514020    -0.053801901310501    -0.000000000000000
    -0.000000000000000     0.000000000000000     0.483661263836628
3 31
     0.332022933929249     0.114199824768205    -0.000000000000000
     0.114199790284780     0.200156354695602     0.000000000000000
    -0.000000000000000    -0.000000000000000    -0.045858629182594
3 32
     0.332022933929249    -0.114199824768205    -0.000000000000000
    -0.114199790284780     0.200156354695602    -0.000000000000000
     0.000000000000000    -0.000000000000000    -0.045858629182594
3 33
     0.647034030467741    -0.481312107548449     0.000000000000000
    -0.481331639825516    -0.488961816599894    -0.000000000000000
     0.000000000000000     0.000000000000000     0.483661263836628
3 34
    -1.950889013853728    -0.000000000000000    -0.000000000000000
    -0.000000000000000     0.785935911675221    -0.000000000000000
    -0.000000000000000    -0.000000000000000    -0.363549883958759
3 35
     0.647034030467741     0.481312107548449     0.000000000000000
     0.481331639825516    -0.488961816599894     0.000000000000000
    -0.000000000000000     0.000000000000000     0.483661263836628
3 36
    -0.076435638286162     0.006223091640474    -0.000000000000000
     0.006223089761368    -0.069249832103425     0.000000000000000
    -0.000000000000000     0.000000000000000    -0.051704938536706
3 37
     0.134223065078778     0.000000000000000    -0.000000000000000
     0.000000000000000     0.397956223546072    -0.000000000000000
     0.000000000000000    -0.000000000000000    -0.045858629182594
3 38
    -0.076435638286162    -0.006223091640474    -0.000000000000000
    -0.006223089761368    -0.069249832103425    -0.000000000000000
    -0.000000000000000     0.000000000000000    -0.051704938536706
3 39
    -0.118404941060061    -0.124982638835120     0.000000000000000
    -0.124986409665927     0.175039666212122     0.000000000000000
     0.000000000000000    -0.000000000000000     0.010939601842802
3 40
    -0.118404941060061     0.124982638835120     0.000000000000000
     0.124986409665927     0.175039666212122    -0.000000000000000
    -0.000000000000000    -0.000000000000000     0.010939601842802
3 41
    -0.006561258687037     0.189559437280802     0.000000000000000
     0.189555571471845     0.063195983839098    -0.000000000000000
    -0.000000000000000     0.000000000000000     0.010939601842802
3 42
    -0.621799824844319    -0.251229893355393     0.000000000000000
    -0.251249495107373     0.779872038712165    -0.000000000000000
    -0.000000000000000    -0.000000000000000     0.483661263836628
3 43
    -0.621799824844319     0.251229893355393     0.000000000000000
     0.251249495107373     0.779872038712165    -0.000000000000000
    -0.000000000000000    -0.000000000000000     0.483661263836628
3 44
    -0.006561258687038    -0.189559437280802     0.000000000000000
    -0.189555571471845     0.063195983839098     0.000000000000000
     0.000000000000000    -0.000000000000000     0.010939601842802
3 45
    -0.049536182960947    -0.000000000000000    -0.000000000000000
    -0.000000000000000    -0.049536182960948    -0.000000000000000
    -0.000000000000000     0.000000000000000    -0.007607330850567
3 46
     0.209918287475189     0.064571085588691     0.000000000000000
     0.064574874661183    -0.153283562323129    -0.000000000000000