phonopy:
  version: 2.17.1
  frequency_unit_conversion_factor: 15.633302
  symmetry_tolerance: 1.00000e-05
  configuration:
    tom_name: "C"
    dim: "5 5 1"
    band: "0.0 0.0 0.0  0.5 0.0 0.0  0.333 0.333 0.0  0.0 0.0 0.0"
    band_labels: "G M K G"
    eigenvectors: ".true."

physical_unit:
  atomic_mass: "AMU"
  length: "angstrom"
  force_constants: "eV/angstrom^2"

space_group:
  type: "P6/mmm"
  number: 191
  Hall_symbol: "-P 6 2"

supercell_matrix:
- [   5,   0,   0 ]
- [   0,   5,   0 ]
- [   0,   0,   1 ]

primitive_cell:
  lattice:
  - [     2.468030000000001,     0.000000000000000,     0.000000000000000 ] # a
  - [    -1.234015000000000,     2.137377000000000,     0.000000000000000 ] # b
  - [     0.000000000000000,     0.000000000000000,    19.998293000000000 ] # c
  points:
  - symbol: C  # 1
    coordinates: [  0.666667000000000,  0.333333000000000,  0.000000000000000 ]
    mass: 12.010700
  - symbol: C  # 2
    coordinates: [  0.333333000000000,  0.666667000000000,  0.000000000000000 ]
    mass: 12.010700
  reciprocal_lattice: # without 2pi
  - [     0.405181460517092,     0.233931589981552,     0.000000000000000 ] # a*
  - [     0.000000000000000,     0.467863179963104,     0.000000000000000 ] # b*
  - [     0.000000000000000,     0.000000000000000,     0.050004267864262 ] # c*

unit_cell:
  lattice:
  - [     2.468030000000000,     0.000000000000000,     0.000000000000000 ] # a
  - [    -1.234015000000000,     2.137377000000000,     0.000000000000000 ] # b
  - [     0.000000000000000,     0.000000000000000,    19.998293000000000 ] # c
  points:
  - symbol: C  # 1
    coordinates: [  0.666667000000000,  0.333333000000000,  0.000000000000000 ]
    mass: 12.010700
    reduced_to: 1
  - symbol: C  # 2
    coordinates: [  0.333333000000000,  0.666667000000000,  0.000000000000000 ]
    mass: 12.010700
    reduced_to: 2

supercell:
  lattice:
  - [    12.340150000000001,     0.000000000000000,     0.000000000000000 ] # a
  - [    -6.170075000000001,    10.686885000000000,     0.000000000000000 ] # b
  - [     0.000000000000000,     0.000000000000000,    19.998293000000000 ] # c
  points:
  - symbol: C  # 1
    coordinates: [  0.133333400000000,  0.066666600000000,  0.000000000000000 ]
    mass: 12.010700
    reduced_to: 1
  - symbol: C  # 2
    coordinates: [  0.333333400000000,  0.066666600000000,  0.000000000000000 ]
    mass: 12.010700
    reduced_to: 1
  - symbol: C  # 3
    coordinates: [  0.533333400000000,  0.066666600000000,  0.000000000000000 ]
    mass: 12.010700
    reduced_to: 1
  - symbol: C  # 4
    coordinates: [  0.733333400000000,  0.066666600000000,  0.000000000000000 ]
    mass: 12.010700
    reduced_to: 1
  - symbol: C  # 5
    coordinates: [  0.933333400000000,  0.066666600000000,  0.000000000000000 ]
    mass: 12.010700
    reduced_to: 1
  - symbol: C  # 6
    coordinates: [  0.133333400000000,  0.266666600000000,  0.000000000000000 ]
    mass: 12.010700
    reduced_to: 1
  - symbol: C  # 7
    coordinates: [  0.333333400000000,  0.266666600000000,  0.000000000000000 ]
    mass: 12.010700
    reduced_to: 1
  - symbol: C  # 8
    coordinates: [  0.533333400000000,  0.266666600000000,  0.000000000000000 ]
    mass: 12.010700
    reduced_to: 1
  - symbol: C  # 9
    coordinates: [  0.733333400000000,  0.266666600000000,  0.000000000000000 ]
    mass: 12.010700
    reduced_to: 1
  - symbol: C  # 10
    coordinates: [  0.933333400000000,  0.266666600000000,  0.000000000000000 ]
    mass: 12.010700
    reduced_to: 1
  - symbol: C  # 11
    coordinates: [  0.133333400000000,  0.466666600000000,  0.000000000000000 ]
    mass: 12.010700
    reduced_to: 1
  - symbol: C  # 12
    coordinates: [  0.333333400000000,  0.466666600000000,  0.000000000000000 ]
    mass: 12.010700
    reduced_to: 1
  - symbol: C  # 13
    coordinates: [  0.533333400000000,  0.466666600000000,  0.000000000000000 ]
    mass: 12.010700
    reduced_to: 1
  - symbol: C  # 14
    coordinates: [  0.733333400000000,  0.466666600000000,  0.000000000000000 ]
    mass: 12.010700
    reduced_to: 1
  - symbol: C  # 15
    coordinates: [  0.933333400000000,  0.466666600000000,  0.000000000000000 ]
    mass: 12.010700
    reduced_to: 1
  - symbol: C  # 16
    coordinates: [  0.133333400000000,  0.666666600000000,  0.000000000000000 ]
    mass: 12.010700
    reduced_to: 1
  - symbol: C  # 17
    coordinates: [  0.333333400000000,  0.666666600000000,  0.000000000000000 ]
    mass: 12.010700
    reduced_to: 1
  - symbol: C  # 18
    coordinates: [  0.533333400000000,  0.666666600000000,  0.000000000000000 ]
    mass: 12.010700
    reduced_to: 1
  - symbol: C  # 19
    coordinates: [  0.733333400000000,  0.666666600000000,  0.000000000000000 ]
    mass: 12.010700
    reduced_to: 1
  - symbol: C  # 20
    coordinates: [  0.933333400000000,  0.666666600000000,  0.000000000000000 ]
    mass: 12.010700
    reduced_to: 1
  - symbol: C  # 21
    coordinates: [  0.133333400000000,  0.866666600000000,  0.000000000000000 ]
    mass: 12.010700
    reduced_to: 1
  - symbol: C  # 22
    coordinates: [  0.333333400000000,  0.866666600000000,  0.000000000000000 ]
    mass: 12.010700
    reduced_to: 1
  - symbol: C  # 23
    coordinates: [  0.533333400000000,  0.866666600000000,  0.000000000000000 ]
    mass: 12.010700
    reduced_to: 1
  - symbol: C  # 24
    coordinates: [  0.733333400000000,  0.866666600000000,  0.000000000000000 ]
    mass: 12.010700
    reduced_to: 1
  - symbol: C  # 25
    coordinates: [  0.933333400000000,  0.866666600000000,  0.000000000000000 ]
    mass: 12.010700
    reduced_to: 1
  - symbol: C  # 26
    coordinates: [  0.066666600000000,  0.133333400000000,  0.000000000000000 ]
    mass: 12.010700
    reduced_to: 26
  - symbol: C  # 27
    coordinates: [  0.266666600000000,  0.133333400000000,  0.000000000000000 ]
    mass: 12.010700
    reduced_to: 26
  - symbol: C  # 28
    coordinates: [  0.466666600000000,  0.133333400000000,  0.000000000000000 ]
    mass: 12.010700
    reduced_to: 26
  - symbol: C  # 29
    coordinates: [  0.666666600000000,  0.133333400000000,  0.000000000000000 ]
    mass: 12.010700
    reduced_to: 26
  - symbol: C  # 30
    coordinates: [  0.866666600000000,  0.133333400000000,  0.000000000000000 ]
    mass: 12.010700
    reduced_to: 26
  - symbol: C  # 31
    coordinates: [  0.066666600000000,  0.333333400000000,  0.000000000000000 ]
    mass: 12.010700
    reduced_to: 26
  - symbol: C  # 32
    coordinates: [  0.266666600000000,  0.333333400000000,  0.000000000000000 ]
    mass: 12.010700
    reduced_to: 26
  - symbol: C  # 33
    coordinates: [  0.466666600000000,  0.333333400000000,  0.000000000000000 ]
    mass: 12.010700
    reduced_to: 26
  - symbol: C  # 34
    coordinates: [  0.666666600000000,  0.333333400000000,  0.000000000000000 ]
    mass: 12.010700
    reduced_to: 26
  - symbol: C  # 35
    coordinates: [  0.866666600000000,  0.333333400000000,  0.000000000000000 ]
    mass: 12.010700
    reduced_to: 26
  - symbol: C  # 36
    coordinates: [  0.066666600000000,  0.533333400000000,  0.000000000000000 ]
    mass: 12.010700
    reduced_to: 26
  - symbol: C  # 37
    coordinates: [  0.266666600000000,  0.533333400000000,  0.000000000000000 ]
    mass: 12.010700
    reduced_to: 26
  - symbol: C  # 38
    coordinates: [  0.466666600000000,  0.533333400000000,  0.000000000000000 ]
    mass: 12.010700
    reduced_to: 26
  - symbol: C  # 39
    coordinates: [  0.666666600000000,  0.533333400000000,  0.000000000000000 ]
    mass: 12.010700
    reduced_to: 26
  - symbol: C  # 40
    coordinates: [  0.866666600000000,  0.533333400000000,  0.000000000000000 ]
    mass: 12.010700
    reduced_to: 26
  - symbol: C  # 41
    coordinates: [  0.066666600000000,  0.733333400000000,  0.000000000000000 ]
    mass: 12.010700
    reduced_to: 26
  - symbol: C  # 42
    coordinates: [  0.266666600000000,  0.733333400000000,  0.000000000000000 ]
    mass: 12.010700
    reduced_to: 26
  - symbol: C  # 43
    coordinates: [  0.466666600000000,  0.733333400000000,  0.000000000000000 ]
    mass: 12.010700
    reduced_to: 26
  - symbol: C  # 44
    coordinates: [  0.666666600000000,  0.733333400000000,  0.000000000000000 ]
    mass: 12.010700
    reduced_to: 26
  - symbol: C  # 45
    coordinates: [  0.866666600000000,  0.733333400000000,  0.000000000000000 ]
    mass: 12.010700
    reduced_to: 26
  - symbol: C  # 46
    coordinates: [  0.066666600000000,  0.933333400000000,  0.000000000000000 ]
    mass: 12.010700
    reduced_to: 26
  - symbol: C  # 47
    coordinates: [  0.266666600000000,  0.933333400000000,  0.000000000000000 ]
    mass: 12.010700
    reduced_to: 26
  - symbol: C  # 48
    coordinates: [  0.466666600000000,  0.933333400000000,  0.000000000000000 ]
    mass: 12.010700
    reduced_to: 26
  - symbol: C  # 49
    coordinates: [  0.666666600000000,  0.933333400000000,  0.000000000000000 ]
    mass: 12.010700
    reduced_to: 26
  - symbol: C  # 50
    coordinates: [  0.866666600000000,  0.933333400000000,  0.000000000000000 ]
    mass: 12.010700
    reduced_to: 26
