  27   27
1 1
     9.684878137925411     0.000000000000000     0.000000000000000
    -0.000000000000000     9.684878137925411     0.000000000000001
     0.000000000000000    -0.000000000000004     9.684878137925415
1 2
    -0.873480799979262     0.771805087447951     0.771805087447951
     0.771805087447951    -0.873480799979262    -0.771805087447951
     0.771805087447950    -0.771805087447950    -0.873480799979262
1 3
    -0.873480799979262     0.771805087447951     0.771805087447951
     0.771805087447951    -0.873480799979262    -0.771805087447951
     0.771805087447950    -0.771805087447950    -0.873480799979262
1 4
    -0.873480799979262     0.771805087447951    -0.771805087447951
     0.771805087447950    -0.873480799979262     0.771805087447950
    -0.771805087447951     0.771805087447951    -0.873480799979262
1 5
     0.059301089524139     0.000000000000000    -0.000000000000000
     0.000000000000000     0.059301089524139    -0.000000000000000
    -0.000000000000000    -0.000000000000000    -1.097377162202213
1 6
    -0.115765079825480     0.128312921900913     0.000000000000000
     0.128312921900913    -0.115765079825480     0.000000000000000
    -0.000000000000000     0.000000000000000     0.046659716705098
1 7
    -0.873480799979262     0.771805087447951    -0.771805087447951
     0.771805087447950    -0.873480799979262     0.771805087447950
    -0.771805087447951     0.771805087447951    -0.873480799979262
1 8
    -0.115765079825480     0.128312921900913     0.000000000000000
     0.128312921900913    -0.115765079825480     0.000000000000000
    -0.000000000000000     0.000000000000000     0.046659716705098
1 9
     0.059301089524139     0.000000000000000    -0.000000000000000
    -0.000000000000000     0.059301089524139    -0.000000000000000
    -0.000000000000000    -0.000000000000000    -1.097377162202213
1 10
    -0.873480799979262    -0.771805087447950     0.771805087447951
    -0.771805087447950    -0.873480799979262     0.771805087447950
     0.771805087447951     0.771805087447951    -0.873480799979262
1 11
     0.059301089524139    -0.000000000000000     0.000000000000000
    -0.000000000000000    -1.097377162202213     0.000000000000000
     0.000000000000000     0.000000000000000     0.059301089524139
1 12
    -0.115765079825480    -0.000000000000000     0.128312921900913
     0.000000000000000     0.046659716705098    -0.000000000000000
     0.128312921900913    -0.000000000000000    -0.115765079825480
1 13
    -1.097377162202213    -0.000000000000000     0.000000000000000
     0.000000000000000     0.059301089524139     0.000000000000000
    -0.000000000000000    -0.000000000000000     0.059301089524139
1 14
    -0.873480799979262    -0.771805087447951    -0.771805087447951
    -0.771805087447950    -0.873480799979262    -0.771805087447950
    -0.771805087447950    -0.771805087447950    -0.873480799979262
1 15
     0.046659716705098    -0.000000000000000    -0.000000000000000
    -0.000000000000000    -0.115765079825480    -0.128312921900913
    -0.000000000000000    -0.128312921900913    -0.115765079825480
1 16
     0.046659716705098     0.000000000000000     0.000000000000000
    -0.000000000000000    -0.115765079825480     0.128312921900913
     0.000000000000000     0.128312921900913    -0.115765079825480
1 17
    -0.115765079825480     0.000000000000000    -0.128312921900913
    -0.000000000000000     0.046659716705098    -0.000000000000000
    -0.128312921900913    -0.000000000000000    -0.115765079825480
1 18
    -0.115765079825480    -0.128312921900913     0.000000000000000
    -0.128312921900913    -0.115765079825480     0.000000000000000
     0.000000000000000     0.000000000000000     0.046659716705098
1 19
    -0.873480799979262    -0.771805087447950     0.771805087447951
    -0.771805087447950    -0.873480799979262     0.771805087447950
     0.771805087447951     0.771805087447951    -0.873480799979262
1 20
    -0.115765079825480    -0.000000000000000     0.128312921900913
     0.000000000000000     0.046659716705098    -0.000000000000000
     0.128312921900913    -0.000000000000000    -0.115765079825480
1 21
     0.059301089524139    -0.000000000000000     0.000000000000000
    -0.000000000000000    -1.097377162202213     0.000000000000000
     0.000000000000000     0.000000000000000     0.059301089524139
1 22
     0.046659716705098     0.000000000000000     0.000000000000000
    -0.000000000000000    -0.115765079825480     0.128312921900913
     0.000000000000000     0.128312921900913    -0.115765079825480
1 23
    -0.115765079825480    -0.128312921900913     0.000000000000000
    -0.128312921900913    -0.115765079825480     0.000000000000000
     0.000000000000000     0.000000000000000     0.046659716705098
1 24
    -0.115765079825480    -0.000000000000000    -0.128312921900913
    -0.000000000000000     0.046659716705098    -0.000000000000000
    -0.128312921900913    -0.000000000000000    -0.115765079825480
1 25
    -1.097377162202213    -0.000000000000000     0.000000000000000
     0.000000000000000     0.059301089524139     0.000000000000000
    -0.000000000000000    -0.000000000000000     0.059301089524139
1 26
     0.046659716705098    -0.000000000000000    -0.000000000000000
    -0.000000000000000    -0.115765079825480    -0.128312921900913
    -0.000000000000000    -0.128312921900913    -0.115765079825480
1 27
    -0.873480799979262    -0.771805087447951    -0.771805087447951
    -0.771805087447950    -0.873480799979262    -0.771805087447950
    -0.771805087447950    -0.771805087447950    -0.873480799979262
2 1
    -0.873480799979262     0.771805087447951     0.771805087447951
     0.771805087447951    -0.873480799979262    -0.771805087447951
     0.771805087447950    -0.771805087447950    -0.873480799979262
2 2
     9.684878137925411     0.000000000000001     0.000000000000000
     0.000000000000000     9.684878137925411     0.000000000000000
     0.000000000000000    -0.000000000000005     9.684878137925415
2 3
    -0.873480799979262     0.771805087447951     0.771805087447951
     0.771805087447951    -0.873480799979262    -0.771805087447951
     0.771805087447950    -0.771805087447950    -0.873480799979262
2 4
    -0.115765079825480     0.128312921900913    -0.000000000000000
     0.128312921900913    -0.115765079825480     0.000000000000000
    -0.000000000000000     0.000000000000000     0.046659716705098
2 5
    -0.873480799979262     0.771805087447951    -0.771805087447951
     0.771805087447950    -0.873480799979262     0.771805087447950
    -0.771805087447951     0.771805087447951    -0.873480799979262
2 6
     0.059301089524139     0.000000000000000     0.000000000000000
     0.000000000000000     0.059301089524139    -0.000000000000000
     0.000000000000000     0.000000000000000    -1.097377162202213
2 7
     0.059301089524139     0.000000000000000    -0.000000000000000
     0.000000000000000     0.059301089524139    -0.000000000000000
     0.000000000000000     0.000000000000000    -1.097377162202213
2 8
    -0.873480799979262     0.771805087447951    -0.771805087447951
     0.771805087447950    -0.873480799979262     0.771805087447950
    -0.771805087447951     0.771805087447951    -0.873480799979262
2 9
    -0.115765079825480     0.128312921900913    -0.000000000000000
     0.128312921900913    -0.115765079825480     0.000000000000000
    -0.000000000000000     0.000000000000000     0.046659716705098
2 10
    -0.115765079825480    -0.000000000000000     0.128312921900913
     0.000000000000000     0.046659716705098    -0.000000000000000
     0.128312921900913    -0.000000000000000    -0.115765079825480
2 11
    -0.873480799979262    -0.771805087447950     0.771805087447951
    -0.771805087447950    -0.873480799979262     0.771805087447950
     0.771805087447951     0.771805087447951    -0.873480799979262
2 12
     0.059301089524139    -0.000000000000000     0.000000000000000
    -0.000000000000000    -1.097377162202213     0.000000000000000
     0.000000000000000     0.000000000000000     0.059301089524139
2 13
     0.046659716705098    -0.000000000000000    -0.000000000000000
    -0.000000000000000    -0.115765079825480    -0.128312921900913
    -0.000000000000000    -0.128312921900913    -0.115765079825480
2 14
    -1.097377162202213    -0.000000000000000    -0.000000000000000
    -0.000000000000000     0.059301089524139     0.000000000000000
    -0.000000000000000    -0.000000000000000     0.059301089524139
2 15
    -0.873480799979262    -0.771805087447951    -0.771805087447951
    -0.771805087447950    -0.873480799979262    -0.771805087447950
    -0.771805087447950    -0.771805087447950    -0.873480799979262
2 16
    -0.115765079825480    -0.128312921900913     0.000000000000000
    -0.128312921900913    -0.115765079825480     0.000000000000000
     0.000000000000000     0.000000000000000     0.046659716705098
2 17
     0.046659716705098    -0.000000000000000     0.000000000000000
    -0.000000000000000    -0.115765079825480     0.128312921900913
     0.000000000000000     0.128312921900913    -0.115765079825480
2 18
    -0.115765079825480     0.000000000000000    -0.128312921900913
    -0.000000000000000     0.046659716705098    -0.000000000000000
    -0.128312921900913    -0.000000000000000    -0.115765079825480
2 19
     0.059301089524139    -0.000000000000000     0.000000000000000
    -0.000000000000000    -1.097377162202213     0.000000000000000
     0.000000000000000     0.000000000000000     0.059301089524139
2 20
    -0.873480799979262    -0.771805087447950     0.771805087447951
    -0.771805087447950    -0.873480799979262     0.771805087447950
     0.771805087447951     0.771805087447951    -0.873480799979262
2 21
    -0.115765079825480    -0.000000000000000     0.128312921900913
     0.000000000000000     0.046659716705098    -0.000000000000000
     0.128312921900913    -0.000000000000000    -0.115765079825480
2 22
    -0.115765079825480     0.000000000000000    -0.128312921900913
    -0.000000000000000     0.046659716705098    -0.000000000000000
    -0.128312921900913    -0.000000000000000    -0.115765079825480
2 23
     0.046659716705098    -0.000000000000000     0.000000000000000
    -0.000000000000000    -0.115765079825480     0.128312921900913
     0.000000000000000     0.128312921900913    -0.115765079825480
2 24
    -0.115765079825480    -0.128312921900913     0.000000000000000
    -0.128312921900913    -0.115765079825480     0.000000000000000
     0.000000000000000     0.000000000000000     0.046659716705098
2 25
    -0.873480799979262    -0.771805087447951    -0.771805087447951
    -0.771805087447950    -0.873480799979262    -0.771805087447950
    -0.771805087447950    -0.771805087447950    -0.873480799979262
2 26
    -1.097377162202213    -0.000000000000000    -0.000000000000000
     0.000000000000000     0.059301089524139     0.000000000000000
    -0.000000000000000    -0.000000000000000     0.059301089524139
2 27
     0.046659716705098    -0.000000000000000    -0.000000000000000
    -0.000000000000000    -0.115765079825480    -0.128312921900913
    -0.000000000000000    -0.128312921900913    -0.115765079825480
3 1
    -0.873480799979262     0.771805087447951     0.771805087447951
     0.771805087447951    -0.873480799979262    -0.771805087447951
     0.771805087447950    -0.771805087447950    -0.873480799979262
3 2
    -0.873480799979262     0.771805087447951     0.771805087447951
     0.771805087447951    -0.873480799979262    -0.771805087447951
     0.771805087447950    -0.771805087447950    -0.873480799979262
3 3
     9.684878137925411     0.000000000000001     0.000000000000000
     0.000000000000000     9.684878137925411     0.000000000000000
     0.000000000000000    -0.000000000000005     9.684878137925415
3 4
     0.059301089524139     0.000000000000000     0.000000000000000
     0.000000000000000     0.059301089524139    -0.000000000000000
     0.000000000000000     0.000000000000000    -1.097377162202213
3 5
    -0.115765079825480     0.128312921900913    -0.000000000000000
     0.128312921900913    -0.115765079825480     0.000000000000000
    -0.000000000000000     0.000000000000000     0.046659716705098
3 6
    -0.873480799979262     0.771805087447951    -0.771805087447951
     0.771805087447950    -0.873480799979262     0.771805087447950
    -0.771805087447951     0.771805087447951    -0.873480799979262
3 7
    -0.115765079825480     0.128312921900913    -0.000000000000000
     0.128312921900913    -0.115765079825480     0.000000000000000
    -0.000000000000000     0.000000000000000     0.046659716705098
3 8
     0.059301089524139     0.000000000000000    -0.000000000000000
     0.000000000000000     0.059301089524139    -0.000000000000000
     0.000000000000000     0.000000000000000    -1.097377162202213
3 9
    -0.873480799979262     0.771805087447951    -0.771805087447951
     0.771805087447950    -0.873480799979262     0.771805087447950
    -0.771805087447951     0.771805087447951    -0.873480799979262
3 10
     0.059301089524139    -0.000000000000000     0.000000000000000
    -0.000000000000000    -1.097377162202213     0.000000000000000
     0.000000000000000     0.000000000000000     0.059301089524139
3 11
    -0.115765079825480    -0.000000000000000     0.128312921900913
     0.000000000000000     0.046659716705098    -0.000000000000000
     0.128312921900913    -0.000000000000000    -0.115765079825480
3 12
    -0.873480799979262    -0.771805087447950     0.771805087447951
    -0.771805087447950    -0.873480799979262     0.771805087447950
     0.771805087447951     0.771805087447951    -0.873480799979262
3 13
    -0.873480799979262    -0.771805087447951    -0.771805087447951
    -0.771805087447950    -0.873480799979262    -0.771805087447950
    -0.771805087447950    -0.771805087447950    -0.873480799979262
3 14
     0.046659716705098    -0.000000000000000    -0.000000000000000
    -0.000000000000000    -0.115765079825480    -0.128312921900913
    -0.000000000000000    -0.128312921900913    -0.115765079825480
3 15
    -1.097377162202213    -0.000000000000000    -0.000000000000000
    -0.000000000000000     0.059301089524139     0.000000000000000
    -0.000000000000000    -0.000000000000000     0.059301089524139
3 16
    -0.115765079825480     0.000000000000000    -0.128312921900913
    -0.000000000000000     0.046659716705098    -0.000000000000000
    -0.128312921900913    -0.000000000000000    -0.115765079825480
3 17
    -0.115765079825480    -0.128312921900913     0.000000000000000
    -0.128312921900913    -0.115765079825480     0.000000000000000
     0.000000000000000     0.000000000000000     0.046659716705098
3 18
     0.046659716705098    -0.000000000000000     0.000000000000000
    -0.000000000000000    -0.115765079825480     0.128312921900913
     0.000000000000000     0.128312921900913    -0.115765079825480
3 19
    -0.115765079825480    -0.000000000000000     0.128312921900913
     0.000000000000000     0.046659716705098    -0.000000000000000
     0.128312921900913    -0.000000000000000    -0.115765079825480
3 20
     0.059301089524139    -0.000000000000000     0.000000000000000
    -0.000000000000000    -1.097377162202213     0.000000000000000
     0.000000000000000     0.000000000000000     0.059301089524139
3 21
    -0.873480799979262    -0.771805087447950     0.771805087447951
    -0.771805087447950    -0.873480799979262     0.771805087447950
     0.771805087447951     0.771805087447951    -0.873480799979262
3 22
    -0.115765079825480    -0.128312921900913     0.000000000000000
    -0.128312921900913    -0.115765079825480     0.000000000000000
     0.000000000000000     0.000000000000000     0.046659716705098
3 23
    -0.115765079825480     0.000000000000000    -0.128312921900913
    -0.000000000000000     0.046659716705098    -0.000000000000000
    -0.128312921900913    -0.000000000000000    -0.115765079825480
3 24
     0.046659716705098    -0.000000000000000     0.000000000000000
    -0.000000000000000    -0.115765079825480     0.128312921900913
     0.000000000000000     0.128312921900913    -0.115765079825480
3 25
     0.046659716705098    -0.000000000000000    -0.000000000000000
    -0.000000000000000    -0.115765079825480    -0.128312921900913
    -0.000000000000000    -0.128312921900913    -0.115765079825480
3 26
    -0.873480799979262    -0.771805087447951    -0.771805087447951
    -0.771805087447950    -0.873480799979262    -0.771805087447950
    -0.771805087447950    -0.771805087447950    -0.873480799979262
3 27
    -1.097377162202213    -0.000000000000000    -0.000000000000000
     0.000000000000000     0.059301089524139     0.000000000000000
    -0.000000000000000    -0.000000000000000     0.059301089524139
4 1
    -0.873480799979262     0.771805087447951    -0.771805087447951
     0.771805087447950    -0.873480799979262     0.771805087447950
    -0.771805087447951     0.771805087447951    -0.873480799979262
4 2
    -0.115765079825480     0.128312921900913    -0.000000000000000
     0.128312921900913    -0.115765079825480     0.000000000000000
    -0.000000000000000     0.000000000000000     0.046659716705098
4 3
     0.059301089524139     0.000000000000000    -0.000000000000000
     0.000000000000000     0.059301089524139    -0.000000000000000
     0.000000000000000     0.000000000000000    -1.097377162202213
4 4
     9.684878137925411     0.000000000000001     0.000000000000000
     0.000000000000000     9.684878137925411     0.000000000000000
     0.000000000000000    -0.000000000000005     9.684878137925415
4 5
    -0.873480799979262     0.771805087447951     0.771805087447951
     0.771805087447951    -0.873480799979262    -0.771805087447951
     0.771805087447950    -0.771805087447950    -0.873480799979262
4 6
    -0.873480799979262     0.771805087447951     0.771805087447951
     0.771805087447951    -0.873480799979262    -0.771805087447951
     0.771805087447950    -0.771805087447950    -0.873480799979262
4 7
    -0.873480799979262     0.771805087447951    -0.771805087447951
     0.771805087447950    -0.873480799979262     0.771805087447950
    -0.771805087447951     0.771805087447951    -0.873480799979262
4 8
     0.059301089524139     0.000000000000000     0.000000000000000
     0.000000000000000     0.059301089524139    -0.000000000000000
     0.000000000000000     0.000000000000000    -1.097377162202213
4 9
    -0.115765079825480     0.128312921900913    -0.000000000000000
     0.128312921900913    -0.115765079825480     0.000000000000000
    -0.000000000000000     0.000000000000000     0.046659716705098
4 10
     0.046659716705098    -0.000000000000000     0.000000000000000
    -0.000000000000000    -0.115765079825480     0.128312921900913
     0.000000000000000     0.128312921900913    -0.115765079825480
4 11
    -0.115765079825480     0.000000000000000    -0.128312921900913
    -0.000000000000000     0.046659716705098    -0.000000000000000
    -0.128312921900913    -0.000000000000000    -0.115765079825480
4 12
    -0.115765079825480    -0.128312921900913     0.000000000000000
    -0.128312921900913    -0.115765079825480     0.000000000000000
     0.000000000000000     0.000000000000000     0.046659716705098
4 13
    -0.873480799979262    -0.771805087447950     0.771805087447951
    -0.771805087447950    -0.873480799979262     0.771805087447950
     0.771805087447951     0.771805087447951    -0.873480799979262
4 14
     0.059301089524139    -0.000000000000000     0.000000000000000
    -0.000000000000000    -1.097377162202213     0.000000000000000
     0.000000000000000     0.000000000000000     0.059301089524139
4 15
    -0.115765079825480    -0.000000000000000     0.128312921900913
     0.000000000000000     0.046659716705098    -0.000000000000000
     0.128312921900913    -0.000000000000000    -0.115765079825480
4 16
    -1.097377162202213    -0.000000000000000    -0.000000000000000
    -0.000000000000000     0.059301089524139     0.000000000000000
    -0.000000000000000    -0.000000000000000     0.059301089524139
4 17
    -0.873480799979262    -0.771805087447951    -0.771805087447951
    -0.771805087447950    -0.873480799979262    -0.771805087447950
    -0.771805087447950    -0.771805087447950    -0.873480799979262
4 18
     0.046659716705098    -0.000000000000000    -0.000000000000000
    -0.000000000000000    -0.115765079825480    -0.128312921900913
    -0.000000000000000    -0.128312921900913    -0.115765079825480
4 19
    -1.097377162202213    -0.000000000000000    -0.000000000000000
     0.000000000000000     0.059301089524139     0.000000000000000
    -0.000000000000000    -0.000000000000000     0.059301089524139
4 20
     0.046659716705098    -0.000000000000000    -0.000000000000000
    -0.000000000000000    -0.115765079825480    -0.128312921900913
    -0.000000000000000    -0.128312921900913    -0.115765079825480
4 21
    -0.873480799979262    -0.771805087447951    -0.771805087447951
    -0.771805087447950    -0.873480799979262    -0.771805087447950
    -0.771805087447950    -0.771805087447950    -0.873480799979262
4 22
    -0.873480799979262    -0.771805087447950     0.771805087447951
    -0.771805087447950    -0.873480799979262     0.771805087447950
     0.771805087447951     0.771805087447951    -0.873480799979262
4 23
    -0.115765079825480    -0.000000000000000     0.128312921900913
     0.000000000000000     0.046659716705098    -0.000000000000000
     0.128312921900913    -0.000000000000000    -0.115765079825480
4 24
     0.059301089524139    -0.000000000000000     0.000000000000000
    -0.000000000000000    -1.097377162202213     0.000000000000000
     0.000000000000000     0.000000000000000     0.059301089524139
4 25
     0.046659716705098    -0.000000000000000     0.000000000000000
    -0.000000000000000    -0.115765079825480     0.128312921900913
     0.000000000000000     0.128312921900913    -0.115765079825480
4 26
    -0.115765079825480    -0.128312921900913     0.000000000000000
    -0.128312921900913    -0.115765079825480     0.000000000000000
     0.000000000000000     0.000000000000000     0.046659716705098
4 27
    -0.115765079825480     0.000000000000000    -0.128312921900913
    -0.000000000000000     0.046659716705098    -0.000000000000000
    -0.128312921900913    -0.000000000000000    -0.115765079825480
5 1
     0.059301089524139     0.000000000000000    -0.000000000000000
     0.000000000000000     0.059301089524139    -0.000000000000000
     0.000000000000000     0.000000000000000    -1.097377162202213
5 2
    -0.873480799979262     0.771805087447951    -0.771805087447951
     0.771805087447950    -0.873480799979262     0.771805087447950
    -0.771805087447951     0.771805087447951    -0.873480799979262
5 3
    -0.115765079825480     0.128312921900913    -0.000000000000000
     0.128312921900913    -0.115765079825480     0.000000000000000
    -0.000000000000000     0.000000000000000     0.046659716705098
5 4
    -0.873480799979262     0.771805087447951     0.771805087447951
     0.771805087447951    -0.873480799979262    -0.771805087447951
     0.771805087447950    -0.771805087447950    -0.873480799979262
5 5
     9.684878137925411     0.000000000000001     0.000000000000000
     0.000000000000000     9.684878137925411     0.000000000000000
     0.000000000000000    -0.000000000000005     9.684878137925415
5 6
    -0.873480799979262     0.771805087447951     0.771805087447951
     0.771805087447951    -0.873480799979262    -0.771805087447951
     0.771805087447950    -0.771805087447950    -0.873480799979262
5 7
    -0.115765079825480     0.128312921900913    -0.000000000000000
     0.128312921900913    -0.115765079825480     0.000000000000000
    -0.000000000000000     0.000000000000000     0.046659716705098
5 8
    -0.873480799979262     0.771805087447951    -0.771805087447951
     0.771805087447950    -0.873480799979262     0.771805087447950
    -0.771805087447951     0.771805087447951    -0.873480799979262
5 9
     0.059301089524139     0.000000000000000     0.000000000000000
     0.000000000000000     0.059301089524139    -0.000000000000000
     0.000000000000000     0.000000000000000    -1.097377162202213
5 10
    -0.115765079825480    -0.128312921900913     0.000000000000000
    -0.128312921900913    -0.115765079825480     0.000000000000000
     0.000000000000000     0.000000000000000     0.046659716705098
5 11
     0.046659716705098    -0.000000000000000     0.000000000000000
    -0.000000000000000    -0.115765079825480     0.128312921900913
     0.000000000000000     0.128312921900913    -0.115765079825480
5 12
    -0.115765079825480     0.000000000000000    -0.128312921900913
    -0.000000000000000     0.046659716705098    -0.000000000000000
    -0.128312921900913    -0.000000000000000    -0.115765079825480
5 13
    -0.115765079825480    -0.000000000000000     0.128312921900913
     0.000000000000000     0.046659716705098    -0.000000000000000
     0.128312921900913    -0.000000000000000    -0.115765079825480
5 14
    -0.873480799979262    -0.771805087447950     0.771805087447951
    -0.771805087447950    -0.873480799979262     0.771805087447950
     0.771805087447951     0.771805087447951    -0.873480799979262
5 15
     0.059301089524139    -0.000000000000000     0.000000000000000
    -0.000000000000000    -1.097377162202213     0.000000000000000
     0.000000000000000     0.000000000000000     0.059301089524139
5 16
     0.046659716705098    -0.000000000000000    -0.000000000000000
    -0.000000000000000    -0.115765079825480    -0.128312921900913
    -0.000000000000000    -0.128312921900913    -0.115765079825480
5 17
    -1.097377162202213    -0.000000000000000    -0.000000000000000
    -0.000000000000000     0.059301089524139     0.000000000000000
    -0.000000000000000    -0.000000000000000     0.059301089524139
5 18
    -0.873480799979262    -0.771805087447951    -0.771805087447951
    -0.771805087447950    -0.873480799979262    -0.771805087447950
    -0.771805087447950    -0.771805087447950    -0.873480799979262
5 19
    -0.873480799979262    -0.771805087447951    -0.771805087447951
    -0.771805087447950    -0.873480799979262    -0.771805087447950
    -0.771805087447950    -0.771805087447950    -0.873480799979262
5 20
    -1.097377162202213    -0.000000000000000    -0.000000000000000
     0.000000000000000     0.059301089524139     0.000000000000000
    -0.000000000000000    -0.000000000000000     0.059301089524139
5 21
     0.046659716705098    -0.000000000000000    -0.000000000000000
    -0.000000000000000    -0.115765079825480    -0.128312921900913
    -0.000000000000000    -0.128312921900913    -0.115765079825480
5 22
     0.059301089524139    -0.000000000000000     0.000000000000000
    -0.000000000000000    -1.097377162202213     0.000000000000000
     0.000000000000000     0.000000000000000     0.059301089524139
5 23
    -0.873480799979262    -0.771805087447950     0.771805087447951
    -0.771805087447950    -0.873480799979262     0.771805087447950
     0.771805087447951     0.771805087447951    -0.873480799979262
5 24
    -0.115765079825480    -0.000000000000000     0.128312921900913
     0.000000000000000     0.046659716705098    -0.000000000000000
     0.128312921900913    -0.000000000000000    -0.115765079825480
5 25
    -0.115765079825480     0.000000000000000    -0.128312921900913
    -0.000000000000000     0.046659716705098    -0.000000000000000
    -0.128312921900913    -0.000000000000000    -0.115765079825480
5 26
     0.046659716705098    -0.000000000000000     0.000000000000000
    -0.000000000000000    -0.115765079825480     0.128312921900913
     0.000000000000000     0.128312921900913    -0.115765079825480
5 27
    -0.115765079825480    -0.128312921900913     0.000000000000000
    -0.128312921900913    -0.115765079825480     0.000000000000000
     0.000000000000000     0.000000000000000     0.046659716705098
6 1
    -0.115765079825480     0.128312921900913    -0.000000000000000
     0.128312921900913    -0.115765079825480     0.000000000000000
    -0.000000000000000     0.000000000000000     0.046659716705098
6 2
     0.059301089524139     0.000000000000000    -0.000000000000000
     0.000000000000000     0.059301089524139    -0.000000000000000
     0.000000000000000     0.000000000000000    -1.097377162202213
6 3
    -0.873480799979262     0.771805087447951    -0.771805087447951
     0.771805087447950    -0.873480799979262     0.771805087447950
    -0.771805087447951     0.771805087447951    -0.873480799979262
6 4
    -0.873480799979262     0.771805087447951     0.771805087447951
     0.771805087447951    -0.873480799979262    -0.771805087447951
     0.771805087447950    -0.771805087447950    -0.873480799979262
6 5
    -0.873480799979262     0.771805087447951     0.771805087447951
     0.771805087447951    -0.873480799979262    -0.771805087447951
     0.771805087447950    -0.771805087447950    -0.873480799979262
6 6
     9.684878137925411     0.000000000000001     0.000000000000000
     0.000000000000000     9.684878137925411     0.000000000000000
     0.000000000000000    -0.000000000000005     9.684878137925415
6 7
     0.059301089524139     0.000000000000000     0.000000000000000
     0.000000000000000     0.059301089524139    -0.000000000000000
     0.000000000000000     0.000000000000000    -1.097377162202213
6 8
    -0.115765079825480     0.128312921900913    -0.000000000000000
     0.128312921900913    -0.115765079825480     0.000000000000000
    -0.000000000000000     0.000000000000000     0.046659716705098
6 9
    -0.873480799979262     0.771805087447951    -0.771805087447951
     0.771805087447950    -0.873480799979262     0.771805087447950
    -0.771805087447951     0.771805087447951    -0.873480799979262
6 10
    -0.115765079825480     0.000000000000000    -0.128312921900913
    -0.000000000000000     0.046659716705098    -0.000000000000000
    -0.128312921900913    -0.000000000000000    -0.115765079825480
6 11
    -0.115765079825480    -0.128312921900913     0.000000000000000
    -0.128312921900913    -0.115765079825480     0.000000000000000